<?xml version="1.0"?>

<VTKFile type="UnstructuredGrid" >
  <UnstructuredGrid>
    <Piece NumberOfPoints="221"  NumberOfCells="400" >
      <Cells><DataArray Name="connectivity" type="Int32" format="ascii" >
 121 0 11 121 11 12 121 12 1 121 1 0 122 1 12 122 12 13 122 13 2 122 2 1 123 2 13 123 13 14 123 14 3 123 3 2 124 3 14 124 14 15 124 15 4 124 4 3 125 4 15 125 15 16 125 16 5 125 5 4 126 5 16 126 16 17 126 17 6 126 6 5 127 6 17 127 17 18 127 18 7 127 7 6 128 7 18 128 18 19 128 19 8 128 8 7 129 8 19 129 19 20 129 20 9 129 9 8 130 9 20 130 20 21 130 21 10 130 10 9 131 11 22 131 22 23 131 23 12 131 12 11 132 12 23 132 23 24 132 24 13 132 13 12 133 13 24 133 24 25 133 25 14 133 14 13 134 14 25 134 25 26 134 26 15 134 15 14 135 15 26 135 26 27 135 27 16 135 16 15 136 16 27 136 27 28 136 28 17 136 17 16 137 17 28 137 28 29 137 29 18 137 18 17 138 18 29 138 29 30 138 30 19 138 19 18 139 19 30 139 30 31 139 31 20 139 20 19 140 20 31 140 31 32 140 32 21 140 21 20 141 22 33 141 33 34 141 34 23 141 23 22 142 23 34 142 34 35 142 35 24 142 24 23 143 24 35 143 35 36 143 36 25 143 25 24 144 25 36 144 36 37 144 37 26 144 26 25 145 26 37 145 37 38 145 38 27 145 27 26 146 27 38 146 38 39 146 39 28 146 28 27 147 28 39 147 39 40 147 40 29 147 29 28 148 29 40 148 40 41 148 41 30 148 30 29 149 30 41 149 41 42 149 42 31 149 31 30 150 31 42 150 42 43 150 43 32 150 32 31 151 33 44 151 44 45 151 45 34 151 34 33 152 34 45 152 45 46 152 46 35 152 35 34 153 35 46 153 46 47 153 47 36 153 36 35 154 36 47 154 47 48 154 48 37 154 37 36 155 37 48 155 48 49 155 49 38 155 38 37 156 38 49 156 49 50 156 50 39 156 39 38 157 39 50 157 50 51 157 51 40 157 40 39 158 40 51 158 51 52 158 52 41 158 41 40 159 41 52 159 52 53 159 53 42 159 42 41 160 42 53 160 53 54 160 54 43 160 43 42 161 44 55 161 55 56 161 56 45 161 45 44 162 45 56 162 56 57 162 57 46 162 46 45 163 46 57 163 57 58 163 58 47 163 47 46 164 47 58 164 58 59 164 59 48 164 48 47 165 48 59 165 59 60 165 60 49 165 49 48 166 49 60 166 60 61 166 61 50 166 50 49 167 50 61 167 61 62 167 62 51 167 51 50 168 51 62 168 62 63 168 63 52 168 52 51 169 52 63 169 63 64 169 64 53 169 53 52 170 53 64 170 64 65 170 65 54 170 54 53 171 55 66 171 66 67 171 67 56 171 56 55 172 56 67 172 67 68 172 68 57 172 57 56 173 57 68 173 68 69 173 69 58 173 58 57 174 58 69 174 69 70 174 70 59 174 59 58 175 59 70 175 70 71 175 71 60 175 60 59 176 60 71 176 71 72 176 72 61 176 61 60 177 61 72 177 72 73 177 73 62 177 62 61 178 62 73 178 73 74 178 74 63 178 63 62 179 63 74 179 74 75 179 75 64 179 64 63 180 64 75 180 75 76 180 76 65 180 65 64 181 66 77 181 77 78 181 78 67 181 67 66 182 67 78 182 78 79 182 79 68 182 68 67 183 68 79 183 79 80 183 80 69 183 69 68 184 69 80 184 80 81 184 81 70 184 70 69 185 70 81 185 81 82 185 82 71 185 71 70 186 71 82 186 82 83 186 83 72 186 72 71 187 72 83 187 83 84 187 84 73 187 73 72 188 73 84 188 84 85 188 85 74 188 74 73 189 74 85 189 85 86 189 86 75 189 75 74 190 75 86 190 86 87 190 87 76 190 76 75 191 77 88 191 88 89 191 89 78 191 78 77 192 78 89 192 89 90 192 90 79 192 79 78 193 79 90 193 90 91 193 91 80 193 80 79 194 80 91 194 91 92 194 92 81 194 81 80 195 81 92 195 92 93 195 93 82 195 82 81 196 82 93 196 93 94 196 94 83 196 83 82 197 83 94 197 94 95 197 95 84 197 84 83 198 84 95 198 95 96 198 96 85 198 85 84 199 85 96 199 96 97 199 97 86 199 86 85 200 86 97 200 97 98 200 98 87 200 87 86 201 88 99 201 99 100 201 100 89 201 89 88 202 89 100 202 100 101 202 101 90 202 90 89 203 90 101 203 101 102 203 102 91 203 91 90 204 91 102 204 102 103 204 103 92 204 92 91 205 92 103 205 103 104 205 104 93 205 93 92 206 93 104 206 104 105 206 105 94 206 94 93 207 94 105 207 105 106 207 106 95 207 95 94 208 95 106 208 106 107 208 107 96 208 96 95 209 96 107 209 107 108 209 108 97 209 97 96 210 97 108 210 108 109 210 109 98 210 98 97 211 99 110 211 110 111 211 111 100 211 100 99 212 100 111 212 111 112 212 112 101 212 101 100 213 101 112 213 112 113 213 113 102 213 102 101 214 102 113 214 113 114 214 114 103 214 103 102 215 103 114 215 114 115 215 115 104 215 104 103 216 104 115 216 115 116 216 116 105 216 105 104 217 105 116 217 116 117 217 117 106 217 106 105 218 106 117 218 117 118 218 118 107 218 107 106 219 107 118 219 118 119 219 119 108 219 108 107 220 108 119 220 119 120 220 120 109 220 109 108
</DataArray>
<DataArray Name="offsets" type="Int32" format="ascii" >
 3 6 9 12 15 18 21 24 27 30 33 36 39 42 45 48 51 54 57 60 63 66 69 72 75 78 81 84 87 90 93 96 99 102 105 108 111 114 117 120 123 126 129 132 135 138 141 144 147 150 153 156 159 162 165 168 171 174 177 180 183 186 189 192 195 198 201 204 207 210 213 216 219 222 225 228 231 234 237 240 243 246 249 252 255 258 261 264 267 270 273 276 279 282 285 288 291 294 297 300 303 306 309 312 315 318 321 324 327 330 333 336 339 342 345 348 351 354 357 360 363 366 369 372 375 378 381 384 387 390 393 396 399 402 405 408 411 414 417 420 423 426 429 432 435 438 441 444 447 450 453 456 459 462 465 468 471 474 477 480 483 486 489 492 495 498 501 504 507 510 513 516 519 522 525 528 531 534 537 540 543 546 549 552 555 558 561 564 567 570 573 576 579 582 585 588 591 594 597 600 603 606 609 612 615 618 621 624 627 630 633 636 639 642 645 648 651 654 657 660 663 666 669 672 675 678 681 684 687 690 693 696 699 702 705 708 711 714 717 720 723 726 729 732 735 738 741 744 747 750 753 756 759 762 765 768 771 774 777 780 783 786 789 792 795 798 801 804 807 810 813 816 819 822 825 828 831 834 837 840 843 846 849 852 855 858 861 864 867 870 873 876 879 882 885 888 891 894 897 900 903 906 909 912 915 918 921 924 927 930 933 936 939 942 945 948 951 954 957 960 963 966 969 972 975 978 981 984 987 990 993 996 999 1002 1005 1008 1011 1014 1017 1020 1023 1026 1029 1032 1035 1038 1041 1044 1047 1050 1053 1056 1059 1062 1065 1068 1071 1074 1077 1080 1083 1086 1089 1092 1095 1098 1101 1104 1107 1110 1113 1116 1119 1122 1125 1128 1131 1134 1137 1140 1143 1146 1149 1152 1155 1158 1161 1164 1167 1170 1173 1176 1179 1182 1185 1188 1191 1194 1197 1200
</DataArray>
<DataArray Name="types" type="Int32" format="ascii" >
 5 5 5 5 5 5 5 5 5 5 5 5 5 5 5 5 5 5 5 5 5 5 5 5 5 5 5 5 5 5 5 5 5 5 5 5 5 5 5 5 5 5 5 5 5 5 5 5 5 5 5 5 5 5 5 5 5 5 5 5 5 5 5 5 5 5 5 5 5 5 5 5 5 5 5 5 5 5 5 5 5 5 5 5 5 5 5 5 5 5 5 5 5 5 5 5 5 5 5 5 5 5 5 5 5 5 5 5 5 5 5 5 5 5 5 5 5 5 5 5 5 5 5 5 5 5 5 5 5 5 5 5 5 5 5 5 5 5 5 5 5 5 5 5 5 5 5 5 5 5 5 5 5 5 5 5 5 5 5 5 5 5 5 5 5 5 5 5 5 5 5 5 5 5 5 5 5 5 5 5 5 5 5 5 5 5 5 5 5 5 5 5 5 5 5 5 5 5 5 5 5 5 5 5 5 5 5 5 5 5 5 5 5 5 5 5 5 5 5 5 5 5 5 5 5 5 5 5 5 5 5 5 5 5 5 5 5 5 5 5 5 5 5 5 5 5 5 5 5 5 5 5 5 5 5 5 5 5 5 5 5 5 5 5 5 5 5 5 5 5 5 5 5 5 5 5 5 5 5 5 5 5 5 5 5 5 5 5 5 5 5 5 5 5 5 5 5 5 5 5 5 5 5 5 5 5 5 5 5 5 5 5 5 5 5 5 5 5 5 5 5 5 5 5 5 5 5 5 5 5 5 5 5 5 5 5 5 5 5 5 5 5 5 5 5 5 5 5 5 5 5 5 5 5 5 5 5 5 5 5 5 5 5 5 5 5 5 5 5 5 5 5 5 5 5 5 5 5 5 5 5 5 5 5 5 5 5 5 5 5 5 5 5 5 5 5 5 5 5 5
</DataArray>

      </Cells>
      <Points><DataArray NumberOfComponents="3" type="Float32" format="ascii" >
 0 0 0 0 0.1 0 0 0.2 0 0 0.3 0 0 0.4 0 0 0.5 0 0 0.6 0 0 0.7 0 0 0.8 0 0 0.9 0 0 1 0 0.1 0 0 0.1 0.1 0 0.1 0.2 0 0.1 0.3 0 0.1 0.4 0 0.1 0.5 0 0.1 0.6 0 0.1 0.7 0 0.1 0.8 0 0.1 0.9 0 0.1 1 0 0.2 0 0 0.2 0.1 0 0.2 0.2 0 0.2 0.3 0 0.2 0.4 0 0.2 0.5 0 0.2 0.6 0 0.2 0.7 0 0.2 0.8 0 0.2 0.9 0 0.2 1 0 0.3 0 0 0.3 0.1 0 0.3 0.2 0 0.3 0.3 0 0.3 0.4 0 0.3 0.5 0 0.3 0.6 0 0.3 0.7 0 0.3 0.8 0 0.3 0.9 0 0.3 1 0 0.4 0 0 0.4 0.1 0 0.4 0.2 0 0.4 0.3 0 0.4 0.4 0 0.4 0.5 0 0.4 0.6 0 0.4 0.7 0 0.4 0.8 0 0.4 0.9 0 0.4 1 0 0.5 0 0 0.5 0.1 0 0.5 0.2 0 0.5 0.3 0 0.5 0.4 0 0.5 0.5 0 0.5 0.6 0 0.5 0.7 0 0.5 0.8 0 0.5 0.9 0 0.5 1 0 0.6 0 0 0.6 0.1 0 0.6 0.2 0 0.6 0.3 0 0.6 0.4 0 0.6 0.5 0 0.6 0.6 0 0.6 0.7 0 0.6 0.8 0 0.6 0.9 0 0.6 1 0 0.7 0 0 0.7 0.1 0 0.7 0.2 0 0.7 0.3 0 0.7 0.4 0 0.7 0.5 0 0.7 0.6 0 0.7 0.7 0 0.7 0.8 0 0.7 0.9 0 0.7 1 0 0.8 0 0 0.8 0.1 0 0.8 0.2 0 0.8 0.3 0 0.8 0.4 0 0.8 0.5 0 0.8 0.6 0 0.8 0.7 0 0.8 0.8 0 0.8 0.9 0 0.8 1 0 0.9 0 0 0.9 0.1 0 0.9 0.2 0 0.9 0.3 0 0.9 0.4 0 0.9 0.5 0 0.9 0.6 0 0.9 0.7 0 0.9 0.8 0 0.9 0.9 0 0.9 1 0 1 0 0 1 0.1 0 1 0.2 0 1 0.3 0 1 0.4 0 1 0.5 0 1 0.6 0 1 0.7 0 1 0.8 0 1 0.9 0 1 1 0 0.05 0.05 0 0.05 0.15 0 0.05 0.25 0 0.05 0.35 0 0.05 0.45 0 0.05 0.55 0 0.05 0.65 0 0.05 0.75 0 0.05 0.85 0 0.05 0.95 0 0.15 0.05 0 0.15 0.15 0 0.15 0.25 0 0.15 0.35 0 0.15 0.45 0 0.15 0.55 0 0.15 0.65 0 0.15 0.75 0 0.15 0.85 0 0.15 0.95 0 0.25 0.05 0 0.25 0.15 0 0.25 0.25 0 0.25 0.35 0 0.25 0.45 0 0.25 0.55 0 0.25 0.65 0 0.25 0.75 0 0.25 0.85 0 0.25 0.95 0 0.35 0.05 0 0.35 0.15 0 0.35 0.25 0 0.35 0.35 0 0.35 0.45 0 0.35 0.55 0 0.35 0.65 0 0.35 0.75 0 0.35 0.85 0 0.35 0.95 0 0.45 0.05 0 0.45 0.15 0 0.45 0.25 0 0.45 0.35 0 0.45 0.45 0 0.45 0.55 0 0.45 0.65 0 0.45 0.75 0 0.45 0.85 0 0.45 0.95 0 0.55 0.05 0 0.55 0.15 0 0.55 0.25 0 0.55 0.35 0 0.55 0.45 0 0.55 0.55 0 0.55 0.65 0 0.55 0.75 0 0.55 0.85 0 0.55 0.95 0 0.65 0.05 0 0.65 0.15 0 0.65 0.25 0 0.65 0.35 0 0.65 0.45 0 0.65 0.55 0 0.65 0.65 0 0.65 0.75 0 0.65 0.85 0 0.65 0.95 0 0.75 0.05 0 0.75 0.15 0 0.75 0.25 0 0.75 0.35 0 0.75 0.45 0 0.75 0.55 0 0.75 0.65 0 0.75 0.75 0 0.75 0.85 0 0.75 0.95 0 0.85 0.05 0 0.85 0.15 0 0.85 0.25 0 0.85 0.35 0 0.85 0.45 0 0.85 0.55 0 0.85 0.65 0 0.85 0.75 0 0.85 0.85 0 0.85 0.95 0 0.95 0.05 0 0.95 0.15 0 0.95 0.25 0 0.95 0.35 0 0.95 0.45 0 0.95 0.55 0 0.95 0.65 0 0.95 0.75 0 0.95 0.85 0 0.95 0.95 0
</DataArray>

      </Points>
      <PointData Vectors="UU"  Scalars="PP" ><DataArray Name="UU" NumberOfComponents="3" type="Float32" format="ascii" >
 0 0 0 0 0 0 0 0 0 0 0 0 0 0 0 0 0 0 0 0 0 0 0 0 0 0 0 0 0 0 0 0 0 0 0 0 0 0 0 0 0 0 0 0 0 0 0 0 0 0 0 0 0 0 0 0 0 0 0 0 0 0 0 0 0 0 0 0 0 0 0 0 0 0 0 0 0 0 0 0 0 0 0 0 0 0 0 0 0 0 0 0 0 0 0 0 0 0 0 0 0 0 0 0 0 0 0 0 0 0 0 0 0 0 0 0 0 0 0 0 0 0 0 0 0 0 0 0 0 0 0 0 0 0 0 0 0 0 0 0 0 0 0 0 0 0 0 0 0 0 0 0 0 0 0 0 0 0 0 0 0 0 0 0 0 0 0 0 0 0 0 0 0 0 0 0 0 0 0 0 0 0 0 0 0 0 0 0 0 0 0 0 0 0 0 0 0 0 0 0 0 0 0 0 0 0 0 0 0 0 0 0 0 0 0 0 0 0 0 0 0 0 0 0 0 0 0 0 0 0 0 0 0 0 0 0 0 0 0 0 0 0 0 0 0 0 0 0 0 0 0 0 0 0 0 0 0 0 0 0 0 0 0 0 0 0 0 0 0 0 0 0 0 0 0 0 0 0 0 0 0 0 0 0 0 0 0 0 0 0 0 0 0 0 0 0 0 0 0 0 0 0 0 0 0 0 0 0 0 0 0 0 0 0 0 0 0 0 0 0 0 0 0 0 0 0 0 0 0 0 0 0 0 0 0 0 0 0 0 0 0 0 0 0 0 0 0 0 0 0 0 0 0 0 0 0 0 0 0 0 0 0 0 0 0 0 0 0 0 0 0 0 0 0 0 0 0 0 0 0 0 0 0 0 0 0 0 0 0 0 0 0 0 0 0 0 0 0 0 0 0 0 0 0 0 0 0 0 0 0 0 0 0 0 0 0 0 0 0 0 0 0 0 0 0 0 0 0 0 0 0 0 0 0 0 0 0 0 0 0 0 0 0 0 0 0 0 0 0 0 0 0 0 0 0 0 0 0 0 0 0 0 0 0 0 0 0 0 0 0 0 0 0 0 0 0 0 0 0 0 0 0 0 0 0 0 0 0 0 0 0 0 0 0 0 0 0 0 0 0 0 0 0 0 0 0 0 0 0 0 0 0 0 0 0 0 0 0 0 0 0 0 0 0 0 0 0 0 0 0 0 0 0 0 0 0 0 0 0 0 0 0 0 0 0 0 0 0 0 0 0 0 0 0 0 0 0 0 0 0 0 0 0 0 0 0 0 0 0 0 0 0 0 0 0 0 0 0 0 0 0 0 0 0 0 0 0 0 0 0 0 0 0 0 0 0 0 0 0 0 0 0 0 0 0 0 0 0 0 0 0 0 0 0 0 0 0 0 0 0 0 0 0 0 0 0 0 0 0 0 0 0 0 0 0 0 0 0 0 0 0 0 0 0 0 0 0 0 0 0 0 0 0 0 0 0 0 0 0 0 0 0 0
</DataArray>
<DataArray Name="PP" type="Float32" format="ascii" >
 0 0 0 0 0 0 0 0 0 0 0 0 0 0 0 0 0 0 0 0 0 0 0 0 0 0 0 0 0 0 0 0 0 0 0 0 0 0 0 0 0 0 0 0 0 0 0 0 0 0 0 0 0 0 0 0 0 0 0 0 0 0 0 0 0 0 0 0 0 0 0 0 0 0 0 0 0 0 0 0 0 0 0 0 0 0 0 0 0 0 0 0 0 0 0 0 0 0 0 0 0 0 0 0 0 0 0 0 0 0 0 0 0 0 0 0 0 0 0 0 0 0 0 0 0 0 0 0 0 0 0 0 0 0 0 0 0 0 0 0 0 0 0 0 0 0 0 0 0 0 0 0 0 0 0 0 0 0 0 0 0 0 0 0 0 0 0 0 0 0 0 0 0 0 0 0 0 0 0 0 0 0 0 0 0 0 0 0 0 0 0 0 0 0 0 0 0 0 0 0 0 0 0 0 0 0 0 0 0 0 0 0 0 0 0 0 0 0 0 0 0
</DataArray>

      </PointData>
      <CellData Scalars="SecInvGammadot"  Vectors="pressuredrop" ><DataArray Name="SecInvGammadot" type="Float32" format="ascii" >
 0 0 0 0 0 0 0 0 0 0 0 0 0 0 0 0 0 0 0 0 0 0 0 0 0 0 0 0 0 0 0 0 0 0 0 0 0 0 0 0 0 0 0 0 0 0 0 0 0 0 0 0 0 0 0 0 0 0 0 0 0 0 0 0 0 0 0 0 0 0 0 0 0 0 0 0 0 0 0 0 0 0 0 0 0 0 0 0 0 0 0 0 0 0 0 0 0 0 0 0 0 0 0 0 0 0 0 0 0 0 0 0 0 0 0 0 0 0 0 0 0 0 0 0 0 0 0 0 0 0 0 0 0 0 0 0 0 0 0 0 0 0 0 0 0 0 0 0 0 0 0 0 0 0 0 0 0 0 0 0 0 0 0 0 0 0 0 0 0 0 0 0 0 0 0 0 0 0 0 0 0 0 0 0 0 0 0 0 0 0 0 0 0 0 0 0 0 0 0 0 0 0 0 0 0 0 0 0 0 0 0 0 0 0 0 0 0 0 0 0 0 0 0 0 0 0 0 0 0 0 0 0 0 0 0 0 0 0 0 0 0 0 0 0 0 0 0 0 0 0 0 0 0 0 0 0 0 0 0 0 0 0 0 0 0 0 0 0 0 0 0 0 0 0 0 0 0 0 0 0 0 0 0 0 0 0 0 0 0 0 0 0 0 0 0 0 0 0 0 0 0 0 0 0 0 0 0 0 0 0 0 0 0 0 0 0 0 0 0 0 0 0 0 0 0 0 0 0 0 0 0 0 0 0 0 0 0 0 0 0 0 0 0 0 0 0 0 0 0 0 0 0 0 0 0 0 0 0 0 0 0 0 0 0 0 0 0 0 0 0 0 0 0 0 0 0 0 0 0 0 0 0 0 0 0 0 0 0 0 0 0 0 0 0 0 0 0 0 0 0
</DataArray>
<DataArray Name="Reynolds" type="Float32" format="ascii" >
 1 1 1 1 1 1 1 1 1 1 1 1 1 1 1 1 1 1 1 1 1 1 1 1 1 1 1 1 1 1 1 1 1 1 1 1 1 1 1 1 1 1 1 1 1 1 1 1 1 1 1 1 1 1 1 1 1 1 1 1 1 1 1 1 1 1 1 1 1 1 1 1 1 1 1 1 1 1 1 1 1 1 1 1 1 1 1 1 1 1 1 1 1 1 1 1 1 1 1 1 1 1 1 1 1 1 1 1 1 1 1 1 1 1 1 1 1 1 1 1 1 1 1 1 1 1 1 1 1 1 1 1 1 1 1 1 1 1 1 1 1 1 1 1 1 1 1 1 1 1 1 1 1 1 1 1 1 1 1 1 1 1 1 1 1 1 1 1 1 1 1 1 1 1 1 1 1 1 1 1 1 1 1 1 1 1 1 1 1 1 1 1 1 1 1 1 1 1 1 1 1 1 1 1 1 1 1 1 1 1 1 1 1 1 1 1 1 1 1 1 1 1 1 1 1 1 1 1 1 1 1 1 1 1 1 1 1 1 1 1 1 1 1 1 1 1 1 1 1 1 1 1 1 1 1 1 1 1 1 1 1 1 1 1 1 1 1 1 1 1 1 1 1 1 1 1 1 1 1 1 1 1 1 1 1 1 1 1 1 1 1 1 1 1 1 1 1 1 1 1 1 1 1 1 1 1 1 1 1 1 1 1 1 1 1 1 1 1 1 1 1 1 1 1 1 1 1 1 1 1 1 1 1 1 1 1 1 1 1 1 1 1 1 1 1 1 1 1 1 1 1 1 1 1 1 1 1 1 1 1 1 1 1 1 1 1 1 1 1 1 1 1 1 1 1 1 1 1 1 1 1 1 1 1 1 1 1 1 1 1 1 1 1 1 1 1 1 1 1 1
</DataArray>
<DataArray Name="viscosity" type="Float32" format="ascii" >
 50001 50001 50001 50001 50001 50001 50001 50001 50001 50001 50001 50001 50001 50001 50001 50001 50001 50001 50001 50001 50001 50001 50001 50001 50001 50001 50001 50001 50001 50001 50001 50001 50001 50001 50001 50001 50001 50001 50001 50001 50001 50001 50001 50001 50001 50001 50001 50001 50001 50001 50001 50001 50001 50001 50001 50001 50001 50001 50001 50001 50001 50001 50001 50001 50001 50001 50001 50001 50001 50001 50001 50001 50001 50001 50001 50001 50001 50001 50001 50001 50001 50001 50001 50001 50001 50001 50001 50001 50001 50001 50001 50001 50001 50001 50001 50001 50001 50001 50001 50001 50001 50001 50001 50001 50001 50001 50001 50001 50001 50001 50001 50001 50001 50001 50001 50001 50001 50001 50001 50001 50001 50001 50001 50001 50001 50001 50001 50001 50001 50001 50001 50001 50001 50001 50001 50001 50001 50001 50001 50001 50001 50001 50001 50001 50001 50001 50001 50001 50001 50001 50001 50001 50001 50001 50001 50001 50001 50001 50001 50001 50001 50001 50001 50001 50001 50001 50001 50001 50001 50001 50001 50001 50001 50001 50001 50001 50001 50001 50001 50001 50001 50001 50001 50001 50001 50001 50001 50001 50001 50001 50001 50001 50001 50001 50001 50001 50001 50001 50001 50001 50001 50001 50001 50001 50001 50001 50001 50001 50001 50001 50001 50001 50001 50001 50001 50001 50001 50001 50001 50001 50001 50001 50001 50001 50001 50001 50001 50001 50001 50001 50001 50001 50001 50001 50001 50001 50001 50001 50001 50001 50001 50001 50001 50001 50001 50001 50001 50001 50001 50001 50001 50001 50001 50001 50001 50001 50001 50001 50001 50001 50001 50001 50001 50001 50001 50001 50001 50001 50001 50001 50001 50001 50001 50001 50001 50001 50001 50001 50001 50001 50001 50001 50001 50001 50001 50001 50001 50001 50001 50001 50001 50001 50001 50001 50001 50001 50001 50001 50001 50001 50001 50001 50001 50001 50001 50001 50001 50001 50001 50001 50001 50001 50001 50001 50001 50001 50001 50001 50001 50001 50001 50001 50001 50001 50001 50001 50001 50001 50001 50001 50001 50001 50001 50001 50001 50001 50001 50001 50001 50001 50001 50001 50001 50001 50001 50001 50001 50001 50001 50001 50001 50001 50001 50001 50001 50001 50001 50001 50001 50001 50001 50001 50001 50001 50001 50001 50001 50001 50001 50001 50001 50001 50001 50001 50001 50001 50001 50001 50001 50001 50001 50001 50001 50001 50001 50001 50001 50001 50001 50001 50001 50001 50001 50001 50001 50001 50001 50001 50001 50001
</DataArray>
<DataArray Name="pressuredrop" NumberOfComponents="3" type="Float32" format="ascii" >
 10 0 0 10 0 0 10 0 0 10 0 0 10 0 0 10 0 0 10 0 0 10 0 0 10 0 0 10 0 0 10 0 0 10 0 0 10 0 0 10 0 0 10 0 0 10 0 0 10 0 0 10 0 0 10 0 0 10 0 0 10 0 0 10 0 0 10 0 0 10 0 0 10 0 0 10 0 0 10 0 0 10 0 0 10 0 0 10 0 0 10 0 0 10 0 0 10 0 0 10 0 0 10 0 0 10 0 0 10 0 0 10 0 0 10 0 0 10 0 0 10 0 0 10 0 0 10 0 0 10 0 0 10 0 0 10 0 0 10 0 0 10 0 0 10 0 0 10 0 0 10 0 0 10 0 0 10 0 0 10 0 0 10 0 0 10 0 0 10 0 0 10 0 0 10 0 0 10 0 0 10 0 0 10 0 0 10 0 0 10 0 0 10 0 0 10 0 0 10 0 0 10 0 0 10 0 0 10 0 0 10 0 0 10 0 0 10 0 0 10 0 0 10 0 0 10 0 0 10 0 0 10 0 0 10 0 0 10 0 0 10 0 0 10 0 0 10 0 0 10 0 0 10 0 0 10 0 0 10 0 0 10 0 0 10 0 0 10 0 0 10 0 0 10 0 0 10 0 0 10 0 0 10 0 0 10 0 0 10 0 0 10 0 0 10 0 0 10 0 0 10 0 0 10 0 0 10 0 0 10 0 0 10 0 0 10 0 0 10 0 0 10 0 0 10 0 0 10 0 0 10 0 0 10 0 0 10 0 0 10 0 0 10 0 0 10 0 0 10 0 0 10 0 0 10 0 0 10 0 0 10 0 0 10 0 0 10 0 0 10 0 0 10 0 0 10 0 0 10 0 0 10 0 0 10 0 0 10 0 0 10 0 0 10 0 0 10 0 0 10 0 0 10 0 0 10 0 0 10 0 0 10 0 0 10 0 0 10 0 0 10 0 0 10 0 0 10 0 0 10 0 0 10 0 0 10 0 0 10 0 0 10 0 0 10 0 0 10 0 0 10 0 0 10 0 0 10 0 0 10 0 0 10 0 0 10 0 0 10 0 0 10 0 0 10 0 0 10 0 0 10 0 0 10 0 0 10 0 0 10 0 0 10 0 0 10 0 0 10 0 0 10 0 0 10 0 0 10 0 0 10 0 0 10 0 0 10 0 0 10 0 0 10 0 0 10 0 0 10 0 0 10 0 0 10 0 0 10 0 0 10 0 0 10 0 0 10 0 0 10 0 0 10 0 0 10 0 0 10 0 0 10 0 0 10 0 0 10 0 0 10 0 0 10 0 0 10 0 0 10 0 0 10 0 0 10 0 0 10 0 0 10 0 0 10 0 0 10 0 0 10 0 0 10 0 0 10 0 0 10 0 0 10 0 0 10 0 0 10 0 0 10 0 0 10 0 0 10 0 0 10 0 0 10 0 0 10 0 0 10 0 0 10 0 0 10 0 0 10 0 0 10 0 0 10 0 0 10 0 0 10 0 0 10 0 0 10 0 0 10 0 0 10 0 0 10 0 0 10 0 0 10 0 0 10 0 0 10 0 0 10 0 0 10 0 0 10 0 0 10 0 0 10 0 0 10 0 0 10 0 0 10 0 0 10 0 0 10 0 0 10 0 0 10 0 0 10 0 0 10 0 0 10 0 0 10 0 0 10 0 0 10 0 0 10 0 0 10 0 0 10 0 0 10 0 0 10 0 0 10 0 0 10 0 0 10 0 0 10 0 0 10 0 0 10 0 0 10 0 0 10 0 0 10 0 0 10 0 0 10 0 0 10 0 0 10 0 0 10 0 0 10 0 0 10 0 0 10 0 0 10 0 0 10 0 0 10 0 0 10 0 0 10 0 0 10 0 0 10 0 0 10 0 0 10 0 0 10 0 0 10 0 0 10 0 0 10 0 0 10 0 0 10 0 0 10 0 0 10 0 0 10 0 0 10 0 0 10 0 0 10 0 0 10 0 0 10 0 0 10 0 0 10 0 0 10 0 0 10 0 0 10 0 0 10 0 0 10 0 0 10 0 0 10 0 0 10 0 0 10 0 0 10 0 0 10 0 0 10 0 0 10 0 0 10 0 0 10 0 0 10 0 0 10 0 0 10 0 0 10 0 0 10 0 0 10 0 0 10 0 0 10 0 0 10 0 0 10 0 0 10 0 0 10 0 0 10 0 0 10 0 0 10 0 0 10 0 0 10 0 0 10 0 0 10 0 0 10 0 0 10 0 0 10 0 0 10 0 0 10 0 0 10 0 0 10 0 0 10 0 0 10 0 0 10 0 0 10 0 0 10 0 0 10 0 0 10 0 0 10 0 0 10 0 0 10 0 0 10 0 0 10 0 0 10 0 0 10 0 0 10 0 0 10 0 0 10 0 0 10 0 0 10 0 0 10 0 0 10 0 0 10 0 0 10 0 0 10 0 0 10 0 0 10 0 0 10 0 0 10 0 0 10 0 0 10 0 0 10 0 0 10 0 0 10 0 0 10 0 0 10 0 0 10 0 0 10 0 0 10 0 0 10 0 0 10 0 0 10 0 0 10 0 0 10 0 0 10 0 0 10 0 0 10 0 0 10 0 0 10 0 0 10 0 0 10 0 0 10 0 0 10 0 0 10 0 0 10 0 0 10 0 0 10 0 0 10 0 0 10 0 0 10 0 0 10 0 0 10 0 0 10 0 0 10 0 0 10 0 0
</DataArray>

      </CellData>
    </Piece>
  </UnstructuredGrid>
</VTKFile>