<?xml version="1.0"?>

<VTKFile type="UnstructuredGrid" >
  <UnstructuredGrid>
    <Piece NumberOfPoints="561"  NumberOfCells="500" >
      <Cells><DataArray Name="connectivity" type="Int32" format="ascii" >
 0 11 12 1 1 12 13 2 2 13 14 3 3 14 15 4 4 15 16 5 5 16 17 6 6 17 18 7 7 18 19 8 8 19 20 9 9 20 21 10 11 22 23 12 12 23 24 13 13 24 25 14 14 25 26 15 15 26 27 16 16 27 28 17 17 28 29 18 18 29 30 19 19 30 31 20 20 31 32 21 22 33 34 23 23 34 35 24 24 35 36 25 25 36 37 26 26 37 38 27 27 38 39 28 28 39 40 29 29 40 41 30 30 41 42 31 31 42 43 32 33 44 45 34 34 45 46 35 35 46 47 36 36 47 48 37 37 48 49 38 38 49 50 39 39 50 51 40 40 51 52 41 41 52 53 42 42 53 54 43 44 55 56 45 45 56 57 46 46 57 58 47 47 58 59 48 48 59 60 49 49 60 61 50 50 61 62 51 51 62 63 52 52 63 64 53 53 64 65 54 55 66 67 56 56 67 68 57 57 68 69 58 58 69 70 59 59 70 71 60 60 71 72 61 61 72 73 62 62 73 74 63 63 74 75 64 64 75 76 65 66 77 78 67 67 78 79 68 68 79 80 69 69 80 81 70 70 81 82 71 71 82 83 72 72 83 84 73 73 84 85 74 74 85 86 75 75 86 87 76 77 88 89 78 78 89 90 79 79 90 91 80 80 91 92 81 81 92 93 82 82 93 94 83 83 94 95 84 84 95 96 85 85 96 97 86 86 97 98 87 88 99 100 89 89 100 101 90 90 101 102 91 91 102 103 92 92 103 104 93 93 104 105 94 94 105 106 95 95 106 107 96 96 107 108 97 97 108 109 98 99 110 111 100 100 111 112 101 101 112 113 102 102 113 114 103 103 114 115 104 104 115 116 105 105 116 117 106 106 117 118 107 107 118 119 108 108 119 120 109 110 121 122 111 111 122 123 112 112 123 124 113 113 124 125 114 114 125 126 115 115 126 127 116 116 127 128 117 117 128 129 118 118 129 130 119 119 130 131 120 121 132 133 122 122 133 134 123 123 134 135 124 124 135 136 125 125 136 137 126 126 137 138 127 127 138 139 128 128 139 140 129 129 140 141 130 130 141 142 131 132 143 144 133 133 144 145 134 134 145 146 135 135 146 147 136 136 147 148 137 137 148 149 138 138 149 150 139 139 150 151 140 140 151 152 141 141 152 153 142 143 154 155 144 144 155 156 145 145 156 157 146 146 157 158 147 147 158 159 148 148 159 160 149 149 160 161 150 150 161 162 151 151 162 163 152 152 163 164 153 154 165 166 155 155 166 167 156 156 167 168 157 157 168 169 158 158 169 170 159 159 170 171 160 160 171 172 161 161 172 173 162 162 173 174 163 163 174 175 164 165 176 177 166 166 177 178 167 167 178 179 168 168 179 180 169 169 180 181 170 170 181 182 171 171 182 183 172 172 183 184 173 173 184 185 174 174 185 186 175 176 187 188 177 177 188 189 178 178 189 190 179 179 190 191 180 180 191 192 181 181 192 193 182 182 193 194 183 183 194 195 184 184 195 196 185 185 196 197 186 187 198 199 188 188 199 200 189 189 200 201 190 190 201 202 191 191 202 203 192 192 203 204 193 193 204 205 194 194 205 206 195 195 206 207 196 196 207 208 197 198 209 210 199 199 210 211 200 200 211 212 201 201 212 213 202 202 213 214 203 203 214 215 204 204 215 216 205 205 216 217 206 206 217 218 207 207 218 219 208 209 220 221 210 210 221 222 211 211 222 223 212 212 223 224 213 213 224 225 214 214 225 226 215 215 226 227 216 216 227 228 217 217 228 229 218 218 229 230 219 220 231 232 221 221 232 233 222 222 233 234 223 223 234 235 224 224 235 236 225 225 236 237 226 226 237 238 227 227 238 239 228 228 239 240 229 229 240 241 230 231 242 243 232 232 243 244 233 233 244 245 234 234 245 246 235 235 246 247 236 236 247 248 237 237 248 249 238 238 249 250 239 239 250 251 240 240 251 252 241 242 253 254 243 243 254 255 244 244 255 256 245 245 256 257 246 246 257 258 247 247 258 259 248 248 259 260 249 249 260 261 250 250 261 262 251 251 262 263 252 253 264 265 254 254 265 266 255 255 266 267 256 256 267 268 257 257 268 269 258 258 269 270 259 259 270 271 260 260 271 272 261 261 272 273 262 262 273 274 263 264 275 276 265 265 276 277 266 266 277 278 267 267 278 279 268 268 279 280 269 269 280 281 270 270 281 282 271 271 282 283 272 272 283 284 273 273 284 285 274 275 286 287 276 276 287 288 277 277 288 289 278 278 289 290 279 279 290 291 280 280 291 292 281 281 292 293 282 282 293 294 283 283 294 295 284 284 295 296 285 286 297 298 287 287 298 299 288 288 299 300 289 289 300 301 290 290 301 302 291 291 302 303 292 292 303 304 293 293 304 305 294 294 305 306 295 295 306 307 296 297 308 309 298 298 309 310 299 299 310 311 300 300 311 312 301 301 312 313 302 302 313 314 303 303 314 315 304 304 315 316 305 305 316 317 306 306 317 318 307 308 319 320 309 309 320 321 310 310 321 322 311 311 322 323 312 312 323 324 313 313 324 325 314 314 325 326 315 315 326 327 316 316 327 328 317 317 328 329 318 319 330 331 320 320 331 332 321 321 332 333 322 322 333 334 323 323 334 335 324 324 335 336 325 325 336 337 326 326 337 338 327 327 338 339 328 328 339 340 329 330 341 342 331 331 342 343 332 332 343 344 333 333 344 345 334 334 345 346 335 335 346 347 336 336 347 348 337 337 348 349 338 338 349 350 339 339 350 351 340 341 352 353 342 342 353 354 343 343 354 355 344 344 355 356 345 345 356 357 346 346 357 358 347 347 358 359 348 348 359 360 349 349 360 361 350 350 361 362 351 352 363 364 353 353 364 365 354 354 365 366 355 355 366 367 356 356 367 368 357 357 368 369 358 358 369 370 359 359 370 371 360 360 371 372 361 361 372 373 362 363 374 375 364 364 375 376 365 365 376 377 366 366 377 378 367 367 378 379 368 368 379 380 369 369 380 381 370 370 381 382 371 371 382 383 372 372 383 384 373 374 385 386 375 375 386 387 376 376 387 388 377 377 388 389 378 378 389 390 379 379 390 391 380 380 391 392 381 381 392 393 382 382 393 394 383 383 394 395 384 385 396 397 386 386 397 398 387 387 398 399 388 388 399 400 389 389 400 401 390 390 401 402 391 391 402 403 392 392 403 404 393 393 404 405 394 394 405 406 395 396 407 408 397 397 408 409 398 398 409 410 399 399 410 411 400 400 411 412 401 401 412 413 402 402 413 414 403 403 414 415 404 404 415 416 405 405 416 417 406 407 418 419 408 408 419 420 409 409 420 421 410 410 421 422 411 411 422 423 412 412 423 424 413 413 424 425 414 414 425 426 415 415 426 427 416 416 427 428 417 418 429 430 419 419 430 431 420 420 431 432 421 421 432 433 422 422 433 434 423 423 434 435 424 424 435 436 425 425 436 437 426 426 437 438 427 427 438 439 428 429 440 441 430 430 441 442 431 431 442 443 432 432 443 444 433 433 444 445 434 434 445 446 435 435 446 447 436 436 447 448 437 437 448 449 438 438 449 450 439 440 451 452 441 441 452 453 442 442 453 454 443 443 454 455 444 444 455 456 445 445 456 457 446 446 457 458 447 447 458 459 448 448 459 460 449 449 460 461 450 451 462 463 452 452 463 464 453 453 464 465 454 454 465 466 455 455 466 467 456 456 467 468 457 457 468 469 458 458 469 470 459 459 470 471 460 460 471 472 461 462 473 474 463 463 474 475 464 464 475 476 465 465 476 477 466 466 477 478 467 467 478 479 468 468 479 480 469 469 480 481 470 470 481 482 471 471 482 483 472 473 484 485 474 474 485 486 475 475 486 487 476 476 487 488 477 477 488 489 478 478 489 490 479 479 490 491 480 480 491 492 481 481 492 493 482 482 493 494 483 484 495 496 485 485 496 497 486 486 497 498 487 487 498 499 488 488 499 500 489 489 500 501 490 490 501 502 491 491 502 503 492 492 503 504 493 493 504 505 494 495 506 507 496 496 507 508 497 497 508 509 498 498 509 510 499 499 510 511 500 500 511 512 501 501 512 513 502 502 513 514 503 503 514 515 504 504 515 516 505 506 517 518 507 507 518 519 508 508 519 520 509 509 520 521 510 510 521 522 511 511 522 523 512 512 523 524 513 513 524 525 514 514 525 526 515 515 526 527 516 517 528 529 518 518 529 530 519 519 530 531 520 520 531 532 521 521 532 533 522 522 533 534 523 523 534 535 524 524 535 536 525 525 536 537 526 526 537 538 527 528 539 540 529 529 540 541 530 530 541 542 531 531 542 543 532 532 543 544 533 533 544 545 534 534 545 546 535 535 546 547 536 536 547 548 537 537 548 549 538 539 550 551 540 540 551 552 541 541 552 553 542 542 553 554 543 543 554 555 544 544 555 556 545 545 556 557 546 546 557 558 547 547 558 559 548 548 559 560 549
</DataArray>
<DataArray Name="offsets" type="Int32" format="ascii" >
 4 8 12 16 20 24 28 32 36 40 44 48 52 56 60 64 68 72 76 80 84 88 92 96 100 104 108 112 116 120 124 128 132 136 140 144 148 152 156 160 164 168 172 176 180 184 188 192 196 200 204 208 212 216 220 224 228 232 236 240 244 248 252 256 260 264 268 272 276 280 284 288 292 296 300 304 308 312 316 320 324 328 332 336 340 344 348 352 356 360 364 368 372 376 380 384 388 392 396 400 404 408 412 416 420 424 428 432 436 440 444 448 452 456 460 464 468 472 476 480 484 488 492 496 500 504 508 512 516 520 524 528 532 536 540 544 548 552 556 560 564 568 572 576 580 584 588 592 596 600 604 608 612 616 620 624 628 632 636 640 644 648 652 656 660 664 668 672 676 680 684 688 692 696 700 704 708 712 716 720 724 728 732 736 740 744 748 752 756 760 764 768 772 776 780 784 788 792 796 800 804 808 812 816 820 824 828 832 836 840 844 848 852 856 860 864 868 872 876 880 884 888 892 896 900 904 908 912 916 920 924 928 932 936 940 944 948 952 956 960 964 968 972 976 980 984 988 992 996 1000 1004 1008 1012 1016 1020 1024 1028 1032 1036 1040 1044 1048 1052 1056 1060 1064 1068 1072 1076 1080 1084 1088 1092 1096 1100 1104 1108 1112 1116 1120 1124 1128 1132 1136 1140 1144 1148 1152 1156 1160 1164 1168 1172 1176 1180 1184 1188 1192 1196 1200 1204 1208 1212 1216 1220 1224 1228 1232 1236 1240 1244 1248 1252 1256 1260 1264 1268 1272 1276 1280 1284 1288 1292 1296 1300 1304 1308 1312 1316 1320 1324 1328 1332 1336 1340 1344 1348 1352 1356 1360 1364 1368 1372 1376 1380 1384 1388 1392 1396 1400 1404 1408 1412 1416 1420 1424 1428 1432 1436 1440 1444 1448 1452 1456 1460 1464 1468 1472 1476 1480 1484 1488 1492 1496 1500 1504 1508 1512 1516 1520 1524 1528 1532 1536 1540 1544 1548 1552 1556 1560 1564 1568 1572 1576 1580 1584 1588 1592 1596 1600 1604 1608 1612 1616 1620 1624 1628 1632 1636 1640 1644 1648 1652 1656 1660 1664 1668 1672 1676 1680 1684 1688 1692 1696 1700 1704 1708 1712 1716 1720 1724 1728 1732 1736 1740 1744 1748 1752 1756 1760 1764 1768 1772 1776 1780 1784 1788 1792 1796 1800 1804 1808 1812 1816 1820 1824 1828 1832 1836 1840 1844 1848 1852 1856 1860 1864 1868 1872 1876 1880 1884 1888 1892 1896 1900 1904 1908 1912 1916 1920 1924 1928 1932 1936 1940 1944 1948 1952 1956 1960 1964 1968 1972 1976 1980 1984 1988 1992 1996 2000
</DataArray>
<DataArray Name="types" type="Int32" format="ascii" >
 9 9 9 9 9 9 9 9 9 9 9 9 9 9 9 9 9 9 9 9 9 9 9 9 9 9 9 9 9 9 9 9 9 9 9 9 9 9 9 9 9 9 9 9 9 9 9 9 9 9 9 9 9 9 9 9 9 9 9 9 9 9 9 9 9 9 9 9 9 9 9 9 9 9 9 9 9 9 9 9 9 9 9 9 9 9 9 9 9 9 9 9 9 9 9 9 9 9 9 9 9 9 9 9 9 9 9 9 9 9 9 9 9 9 9 9 9 9 9 9 9 9 9 9 9 9 9 9 9 9 9 9 9 9 9 9 9 9 9 9 9 9 9 9 9 9 9 9 9 9 9 9 9 9 9 9 9 9 9 9 9 9 9 9 9 9 9 9 9 9 9 9 9 9 9 9 9 9 9 9 9 9 9 9 9 9 9 9 9 9 9 9 9 9 9 9 9 9 9 9 9 9 9 9 9 9 9 9 9 9 9 9 9 9 9 9 9 9 9 9 9 9 9 9 9 9 9 9 9 9 9 9 9 9 9 9 9 9 9 9 9 9 9 9 9 9 9 9 9 9 9 9 9 9 9 9 9 9 9 9 9 9 9 9 9 9 9 9 9 9 9 9 9 9 9 9 9 9 9 9 9 9 9 9 9 9 9 9 9 9 9 9 9 9 9 9 9 9 9 9 9 9 9 9 9 9 9 9 9 9 9 9 9 9 9 9 9 9 9 9 9 9 9 9 9 9 9 9 9 9 9 9 9 9 9 9 9 9 9 9 9 9 9 9 9 9 9 9 9 9 9 9 9 9 9 9 9 9 9 9 9 9 9 9 9 9 9 9 9 9 9 9 9 9 9 9 9 9 9 9 9 9 9 9 9 9 9 9 9 9 9 9 9 9 9 9 9 9 9 9 9 9 9 9 9 9 9 9 9 9 9 9 9 9 9 9 9 9 9 9 9 9 9 9 9 9 9 9 9 9 9 9 9 9 9 9 9 9 9 9 9 9 9 9 9 9 9 9 9 9 9 9 9 9 9 9 9 9 9 9 9 9 9 9 9 9 9 9 9 9 9 9 9 9 9 9 9 9 9 9 9 9 9 9 9 9 9 9 9 9 9 9 9 9 9 9 9 9 9 9
</DataArray>

      </Cells>
      <Points><DataArray NumberOfComponents="3" type="Float32" format="ascii" >
 0 0 0 0 0.1 0 0 0.2 0 0 0.3 0 0 0.4 0 0 0.5 0 0 0.6 0 0 0.7 0 0 0.8 0 0 0.9 0 0 1 0 0.1 0 0 0.1 0.1 0 0.1 0.2 0 0.1 0.3 0 0.1 0.4 0 0.1 0.5 0 0.1 0.6 0 0.1 0.7 0 0.1 0.8 0 0.1 0.9 0 0.1 1 0 0.2 0 0 0.2 0.1 0 0.2 0.2 0 0.2 0.3 0 0.2 0.4 0 0.2 0.5 0 0.2 0.6 0 0.2 0.7 0 0.2 0.8 0 0.2 0.9 0 0.2 1 0 0.3 0 0 0.3 0.1 0 0.3 0.2 0 0.3 0.3 0 0.3 0.4 0 0.3 0.5 0 0.3 0.6 0 0.3 0.7 0 0.3 0.8 0 0.3 0.9 0 0.3 1 0 0.4 0 0 0.4 0.1 0 0.4 0.2 0 0.4 0.3 0 0.4 0.4 0 0.4 0.5 0 0.4 0.6 0 0.4 0.7 0 0.4 0.8 0 0.4 0.9 0 0.4 1 0 0.5 0 0 0.5 0.1 0 0.5 0.2 0 0.5 0.3 0 0.5 0.4 0 0.5 0.5 0 0.5 0.6 0 0.5 0.7 0 0.5 0.8 0 0.5 0.9 0 0.5 1 0 0.6 0 0 0.6 0.1 0 0.6 0.2 0 0.6 0.3 0 0.6 0.4 0 0.6 0.5 0 0.6 0.6 0 0.6 0.7 0 0.6 0.8 0 0.6 0.9 0 0.6 1 0 0.7 0 0 0.7 0.1 0 0.7 0.2 0 0.7 0.3 0 0.7 0.4 0 0.7 0.5 0 0.7 0.6 0 0.7 0.7 0 0.7 0.8 0 0.7 0.9 0 0.7 1 0 0.8 0 0 0.8 0.1 0 0.8 0.2 0 0.8 0.3 0 0.8 0.4 0 0.8 0.5 0 0.8 0.6 0 0.8 0.7 0 0.8 0.8 0 0.8 0.9 0 0.8 1 0 0.9 0 0 0.9 0.1 0 0.9 0.2 0 0.9 0.3 0 0.9 0.4 0 0.9 0.5 0 0.9 0.6 0 0.9 0.7 0 0.9 0.8 0 0.9 0.9 0 0.9 1 0 1 0 0 1 0.1 0 1 0.2 0 1 0.3 0 1 0.4 0 1 0.5 0 1 0.6 0 1 0.7 0 1 0.8 0 1 0.9 0 1 1 0 1.1 0 0 1.1 0.1 0 1.1 0.2 0 1.1 0.3 0 1.1 0.4 0 1.1 0.5 0 1.1 0.6 0 1.1 0.7 0 1.1 0.8 0 1.1 0.9 0 1.1 1 0 1.2 0 0 1.2 0.1 0 1.2 0.2 0 1.2 0.3 0 1.2 0.4 0 1.2 0.5 0 1.2 0.6 0 1.2 0.7 0 1.2 0.8 0 1.2 0.9 0 1.2 1 0 1.3 0 0 1.3 0.1 0 1.3 0.2 0 1.3 0.3 0 1.3 0.4 0 1.3 0.5 0 1.3 0.6 0 1.3 0.7 0 1.3 0.8 0 1.3 0.9 0 1.3 1 0 1.4 0 0 1.4 0.1 0 1.4 0.2 0 1.4 0.3 0 1.4 0.4 0 1.4 0.5 0 1.4 0.6 0 1.4 0.7 0 1.4 0.8 0 1.4 0.9 0 1.4 1 0 1.5 0 0 1.5 0.1 0 1.5 0.2 0 1.5 0.3 0 1.5 0.4 0 1.5 0.5 0 1.5 0.6 0 1.5 0.7 0 1.5 0.8 0 1.5 0.9 0 1.5 1 0 1.6 0 0 1.6 0.1 0 1.6 0.2 0 1.6 0.3 0 1.6 0.4 0 1.6 0.5 0 1.6 0.6 0 1.6 0.7 0 1.6 0.8 0 1.6 0.9 0 1.6 1 0 1.7 0 0 1.7 0.1 0 1.7 0.2 0 1.7 0.3 0 1.7 0.4 0 1.7 0.5 0 1.7 0.6 0 1.7 0.7 0 1.7 0.8 0 1.7 0.9 0 1.7 1 0 1.8 0 0 1.8 0.1 0 1.8 0.2 0 1.8 0.3 0 1.8 0.4 0 1.8 0.5 0 1.8 0.6 0 1.8 0.7 0 1.8 0.8 0 1.8 0.9 0 1.8 1 0 1.9 0 0 1.9 0.1 0 1.9 0.2 0 1.9 0.3 0 1.9 0.4 0 1.9 0.5 0 1.9 0.6 0 1.9 0.7 0 1.9 0.8 0 1.9 0.9 0 1.9 1 0 2 0 0 2 0.1 0 2 0.2 0 2 0.3 0 2 0.4 0 2 0.5 0 2 0.6 0 2 0.7 0 2 0.8 0 2 0.9 0 2 1 0 2.1 0 0 2.1 0.1 0 2.1 0.2 0 2.1 0.3 0 2.1 0.4 0 2.1 0.5 0 2.1 0.6 0 2.1 0.7 0 2.1 0.8 0 2.1 0.9 0 2.1 1 0 2.2 0 0 2.2 0.1 0 2.2 0.2 0 2.2 0.3 0 2.2 0.4 0 2.2 0.5 0 2.2 0.6 0 2.2 0.7 0 2.2 0.8 0 2.2 0.9 0 2.2 1 0 2.3 0 0 2.3 0.1 0 2.3 0.2 0 2.3 0.3 0 2.3 0.4 0 2.3 0.5 0 2.3 0.6 0 2.3 0.7 0 2.3 0.8 0 2.3 0.9 0 2.3 1 0 2.4 0 0 2.4 0.1 0 2.4 0.2 0 2.4 0.3 0 2.4 0.4 0 2.4 0.5 0 2.4 0.6 0 2.4 0.7 0 2.4 0.8 0 2.4 0.9 0 2.4 1 0 2.5 0 0 2.5 0.1 0 2.5 0.2 0 2.5 0.3 0 2.5 0.4 0 2.5 0.5 0 2.5 0.6 0 2.5 0.7 0 2.5 0.8 0 2.5 0.9 0 2.5 1 0 2.6 0 0 2.6 0.1 0 2.6 0.2 0 2.6 0.3 0 2.6 0.4 0 2.6 0.5 0 2.6 0.6 0 2.6 0.7 0 2.6 0.8 0 2.6 0.9 0 2.6 1 0 2.7 0 0 2.7 0.1 0 2.7 0.2 0 2.7 0.3 0 2.7 0.4 0 2.7 0.5 0 2.7 0.6 0 2.7 0.7 0 2.7 0.8 0 2.7 0.9 0 2.7 1 0 2.8 0 0 2.8 0.1 0 2.8 0.2 0 2.8 0.3 0 2.8 0.4 0 2.8 0.5 0 2.8 0.6 0 2.8 0.7 0 2.8 0.8 0 2.8 0.9 0 2.8 1 0 2.9 0 0 2.9 0.1 0 2.9 0.2 0 2.9 0.3 0 2.9 0.4 0 2.9 0.5 0 2.9 0.6 0 2.9 0.7 0 2.9 0.8 0 2.9 0.9 0 2.9 1 0 3 0 0 3 0.1 0 3 0.2 0 3 0.3 0 3 0.4 0 3 0.5 0 3 0.6 0 3 0.7 0 3 0.8 0 3 0.9 0 3 1 0 3.1 0 0 3.1 0.1 0 3.1 0.2 0 3.1 0.3 0 3.1 0.4 0 3.1 0.5 0 3.1 0.6 0 3.1 0.7 0 3.1 0.8 0 3.1 0.9 0 3.1 1 0 3.2 0 0 3.2 0.1 0 3.2 0.2 0 3.2 0.3 0 3.2 0.4 0 3.2 0.5 0 3.2 0.6 0 3.2 0.7 0 3.2 0.8 0 3.2 0.9 0 3.2 1 0 3.3 0 0 3.3 0.1 0 3.3 0.2 0 3.3 0.3 0 3.3 0.4 0 3.3 0.5 0 3.3 0.6 0 3.3 0.7 0 3.3 0.8 0 3.3 0.9 0 3.3 1 0 3.4 0 0 3.4 0.1 0 3.4 0.2 0 3.4 0.3 0 3.4 0.4 0 3.4 0.5 0 3.4 0.6 0 3.4 0.7 0 3.4 0.8 0 3.4 0.9 0 3.4 1 0 3.5 0 0 3.5 0.1 0 3.5 0.2 0 3.5 0.3 0 3.5 0.4 0 3.5 0.5 0 3.5 0.6 0 3.5 0.7 0 3.5 0.8 0 3.5 0.9 0 3.5 1 0 3.6 0 0 3.6 0.1 0 3.6 0.2 0 3.6 0.3 0 3.6 0.4 0 3.6 0.5 0 3.6 0.6 0 3.6 0.7 0 3.6 0.8 0 3.6 0.9 0 3.6 1 0 3.7 0 0 3.7 0.1 0 3.7 0.2 0 3.7 0.3 0 3.7 0.4 0 3.7 0.5 0 3.7 0.6 0 3.7 0.7 0 3.7 0.8 0 3.7 0.9 0 3.7 1 0 3.8 0 0 3.8 0.1 0 3.8 0.2 0 3.8 0.3 0 3.8 0.4 0 3.8 0.5 0 3.8 0.6 0 3.8 0.7 0 3.8 0.8 0 3.8 0.9 0 3.8 1 0 3.9 0 0 3.9 0.1 0 3.9 0.2 0 3.9 0.3 0 3.9 0.4 0 3.9 0.5 0 3.9 0.6 0 3.9 0.7 0 3.9 0.8 0 3.9 0.9 0 3.9 1 0 4 0 0 4 0.1 0 4 0.2 0 4 0.3 0 4 0.4 0 4 0.5 0 4 0.6 0 4 0.7 0 4 0.8 0 4 0.9 0 4 1 0 4.1 0 0 4.1 0.1 0 4.1 0.2 0 4.1 0.3 0 4.1 0.4 0 4.1 0.5 0 4.1 0.6 0 4.1 0.7 0 4.1 0.8 0 4.1 0.9 0 4.1 1 0 4.2 0 0 4.2 0.1 0 4.2 0.2 0 4.2 0.3 0 4.2 0.4 0 4.2 0.5 0 4.2 0.6 0 4.2 0.7 0 4.2 0.8 0 4.2 0.9 0 4.2 1 0 4.3 0 0 4.3 0.1 0 4.3 0.2 0 4.3 0.3 0 4.3 0.4 0 4.3 0.5 0 4.3 0.6 0 4.3 0.7 0 4.3 0.8 0 4.3 0.9 0 4.3 1 0 4.4 0 0 4.4 0.1 0 4.4 0.2 0 4.4 0.3 0 4.4 0.4 0 4.4 0.5 0 4.4 0.6 0 4.4 0.7 0 4.4 0.8 0 4.4 0.9 0 4.4 1 0 4.5 0 0 4.5 0.1 0 4.5 0.2 0 4.5 0.3 0 4.5 0.4 0 4.5 0.5 0 4.5 0.6 0 4.5 0.7 0 4.5 0.8 0 4.5 0.9 0 4.5 1 0 4.6 0 0 4.6 0.1 0 4.6 0.2 0 4.6 0.3 0 4.6 0.4 0 4.6 0.5 0 4.6 0.6 0 4.6 0.7 0 4.6 0.8 0 4.6 0.9 0 4.6 1 0 4.7 0 0 4.7 0.1 0 4.7 0.2 0 4.7 0.3 0 4.7 0.4 0 4.7 0.5 0 4.7 0.6 0 4.7 0.7 0 4.7 0.8 0 4.7 0.9 0 4.7 1 0 4.8 0 0 4.8 0.1 0 4.8 0.2 0 4.8 0.3 0 4.8 0.4 0 4.8 0.5 0 4.8 0.6 0 4.8 0.7 0 4.8 0.8 0 4.8 0.9 0 4.8 1 0 4.9 0 0 4.9 0.1 0 4.9 0.2 0 4.9 0.3 0 4.9 0.4 0 4.9 0.5 0 4.9 0.6 0 4.9 0.7 0 4.9 0.8 0 4.9 0.9 0 4.9 1 0 5 0 0 5 0.1 0 5 0.2 0 5 0.3 0 5 0.4 0 5 0.5 0 5 0.6 0 5 0.7 0 5 0.8 0 5 0.9 0 5 1 0
</DataArray>

      </Points>
      <PointData Vectors="UU" ><DataArray Name="UU" NumberOfComponents="3" type="Float32" format="ascii" >
 0 0 0 0.0399176 0 0 0.082228 0 0 0.118432 0 0 0.145665 0 0 0.161704 0 0 0.164819 0 0 0.15325 0 0 0.124787 0 0 0.0765366 0 0 0 0 0 0 0 0 0.0419792 -0.00206165 0 0.0835772 -0.00547261 0 0.119375 -0.00776443 0 0.146101 -0.0091436 0 0.161707 -0.00958319 0 0.164375 -0.00914215 0 0.152312 -0.00775969 0 0.123435 -0.00546914 0 0.0744782 -0.00205838 0 0 0 0 0 0 0 0.045965 -0.00192418 0 0.0870845 -0.00600625 0 0.12174 -0.00958683 0 0.147296 -0.0117674 0 0.161705 -0.0125201 0 0.163188 -0.0117718 0 0.149937 -0.00959258 0 0.11993 -0.00600291 0 0.0704948 -0.00192496 0 0 0 0 0 0 0 0.0494543 -0.00156515 0 0.0911264 -0.0050144 0 0.124715 -0.00845092 0 0.148838 -0.0107876 0 0.161724 -0.0115966 0 0.161654 -0.0108302 0 0.146961 -0.00849875 0 0.115865 -0.00504747 0 0.0670021 -0.00156772 0 0 0 0 0 0 0 0.0520878 -0.00106848 0 0.0944421 -0.00356849 0 0.127453 -0.00618559 0 0.15035 -0.00809939 0 0.161777 -0.00885563 0 0.160227 -0.00824848 0 0.144197 -0.00638972 0 0.112484 -0.00369665 0 0.06432 -0.00111425 0 0 0 0 0 0 0 0.0537358 -0.000579533 0 0.0966481 -0.00193361 0 0.129428 -0.00349815 0 0.151574 -0.00478373 0 0.161962 -0.00543676 0 0.159221 -0.00522269 0 0.142207 -0.00408535 0 0.110058 -0.00236255 0 0.0625037 -0.000701987 0 0 0 0 0 0 0 0.0543235 -8.38173e-06 0 0.0975582 -0.000152264 0 0.130462 -0.000531909 0 0.152512 -0.00121879 0 0.162402 -0.00194368 0 0.158922 -0.00229842 0 0.141122 -0.00205188 0 0.108619 -0.00125113 0 0.0614159 -0.000385685 0 0 0 0 0 0 0 0.0536649 0.000666926 0 0.0969728 0.00205466 0 0.13063 0.00285199 0 0.153334 0.00254928 0 0.163438 0.00141557 0 0.159508 0.000147293 0 0.141002 -0.000565079 0 0.107959 -0.00058465 0 0.0608283 -0.000201766 0 0 0 0 0 0 0 0.0512497 0.00174811 0 0.0947493 0.00499899 0 0.130098 0.00695713 0 0.154583 0.00654283 0 0.165433 0.00443285 0 0.161311 0.00190355 0 0.141826 -1.2005e-05 0 0.107758 -0.000616549 0 0.060328 -0.000298428 0 0 0 0 0 0 0 0.0461369 0.00336449 0 0.0908394 0.00913603 0 0.129687 0.0114979 0 0.156569 0.010337 0 0.168828 0.00706616 0 0.164728 0.00278296 0 0.143804 -0.000695821 0 0.10757 -0.00188143 0 0.0591724 -0.000856904 0 0 0 0 0 0 0 0.0375154 0.00525683 0 0.0865027 0.0124434 0 0.129276 0.0148295 0 0.159551 0.0134191 0 0.173637 0.00889787 0 0.169856 0.00324359 0 0.147641 -0.00224348 0 0.107571 -0.00489604 0 0.0557833 -0.00253203 0 0 0 0 0 0 0 0.0297775 0.00248075 0 0.0795068 0.0100277 0 0.128438 0.0154755 0 0.162774 0.0145007 0 0.17934 0.0100961 0 0.176366 0.00353784 0 0.152967 -0.00281126 0 0.109439 -0.00735302 0 0.0487246 -0.00452643 0 0 0 0 0 0 0 0.0275644 -0.000268022 0 0.0697817 0.00412303 0 0.125232 0.011606 0 0.164896 0.0136646 0 0.185034 0.0102527 0 0.183174 0.00430824 0 0.158511 -0.00169417 0 0.111238 -0.00449527 0 0.0419004 -0.00229748 0 0 0 0 0 0 0 0.0288536 -0.00102159 0 0.063744 -0.000664548 0 0.11774 0.00538145 0 0.16515 0.0105608 0 0.189286 0.00946671 0 0.189067 0.00526564 0 0.163005 0.000880102 0 0.109864 0.000561096 0 0.0406204 0.00101777 0 0 0 0 0 0 0 0.0309569 -0.00108219 0 0.0631614 -0.00296037 0 0.109737 -0.000421446 0 0.162127 0.00542409 0 0.191252 0.00757513 0 0.192971 0.00590681 0 0.165624 0.00376885 0 0.106935 0.00439628 0 0.0445627 0.00292498 0 0 0 0 0 0 0 0.0330708 -0.00103215 0 0.065762 -0.00386888 0 0.105427 -0.00469813 0 0.156262 -0.000368445 0 0.190418 0.00417865 0 0.194207 0.00544432 0 0.165903 0.0060677 0 0.105288 0.00680853 0 0.0509881 0.00350096 0 0 0 0 0 0 0 0.0352895 -0.00118716 0 0.0695002 -0.00430801 0 0.105378 -0.00716867 0 0.150468 -0.00565572 0 0.186651 -0.000642436 0 0.19264 0.00342454 0 0.16349 0.00677958 0 0.106563 0.00717632 0 0.0573428 0.00285435 0 0 0 0 0 0 0 0.0377974 -0.00132139 0 0.0734801 -0.0046889 0 0.108125 -0.00855628 0 0.14716 -0.0095091 0 0.181119 -0.00568192 0 0.188188 0.000235647 0 0.159474 0.00534878 0 0.110039 0.00549158 0 0.0619379 0.00174144 0 0 0 0 0 0 0 0.0405622 -0.00144406 0 0.0777231 -0.00508512 0 0.112088 -0.00942418 0 0.14647 -0.0117453 0 0.175595 -0.00935972 0 0.181539 -0.00310523 0 0.155515 0.00238904 0 0.113338 0.00290538 0 0.064486 0.000807353 0 0 0 0 0 0 0 0.0435352 -0.00152977 0 0.082202 -0.00534136 0 0.116413 -0.00980692 0 0.147285 -0.012626 0 0.170962 -0.0111939 0 0.174497 -0.00577413 0 0.152166 -0.000877744 0 0.114825 0.000467549 0 0.0654282 0.00013564 0 0 0 0 0 0 0 0.0465827 -0.00151865 0 0.0866909 -0.00524446 0 0.120654 -0.00950985 0 0.14863 -0.0122784 0 0.167379 -0.0114733 0 0.168593 -0.00740614 0 0.14914 -0.0033739 0 0.114422 -0.00129141 0 0.0652171 -0.00034577 0 0 0 0 0 0 0 0.0494816 -0.00138119 0 0.0908718 -0.004736 0 0.124489 -0.0084873 0 0.150005 -0.0109287 0 0.164887 -0.0106172 0 0.164245 -0.00784614 0 0.146232 -0.00462333 0 0.112836 -0.00221197 0 0.0642576 -0.000612801 0 0 0 0 0 0 0 0.0520127 -0.00115095 0 0.0944708 -0.00392736 0 0.127701 -0.00698758 0 0.151254 -0.00900866 0 0.163356 -0.00903988 0 0.161208 -0.00724366 0 0.143545 -0.00474364 0 0.110791 -0.00242456 0 0.0629606 -0.000683044 0 0 0 0 0 0 0 0.0540463 -0.000883809 0 0.0973452 -0.00301643 0 0.130231 -0.00536164 0 0.152337 -0.0069543 0 0.162507 -0.00715807 0 0.159122 -0.0060202 0 0.141262 -0.00415195 0 0.108789 -0.00218679 0 0.0616549 -0.00062152 0 0 0 0 0 0 0 0.0555618 -0.000632864 0 0.0994971 -0.00216887 0 0.132128 -0.00387429 0 0.153226 -0.00506949 0 0.162071 -0.00532039 0 0.157705 -0.00460725 0 0.139468 -0.00326643 0 0.107095 -0.00174551 0 0.0605344 -0.000497755 0 0 0 0 0 0 0 0.0566196 -0.000426282 0 0.101021 -0.00147315 0 0.13349 -0.00265436 0 0.153913 -0.00350915 0 0.161862 -0.00373711 0 0.156758 -0.00329467 0 0.138149 -0.00236979 0 0.105796 -0.00127359 0 0.0596729 -0.000362514 0 0 0 0 0 0 0 0.0573165 -0.000271874 0 0.102047 -0.000948917 0 0.134425 -0.00172953 0 0.154414 -0.00231089 0 0.161767 -0.00248916 0 0.156138 -0.002218 0 0.13723 -0.00160592 0 0.104874 -0.00086246 0 0.0590648 -0.000244182 0 0 0 0 0 0 0 0.0577506 -0.000163718 0 0.102703 -0.000579012 0 0.135037 -0.00106929 0 0.154756 -0.00144467 0 0.161726 -0.00156994 0 0.155744 -0.00140749 0 0.136624 -0.00102003 0 0.10426 -0.000544813 0 0.0586666 -0.000152698 0 0 0 0 0 0 0 0.0580052 -9.22323e-05 0 0.103102 -0.000331039 0 0.135418 -0.000621391 0 0.154977 -0.000849369 0 0.16171 -0.000930044 0 0.155502 -0.000835896 0 0.136245 -0.000603666 0 0.103878 -0.00031887 0 0.0584244 -8.806e-05 0 0 0 0 0 0 0 0.0581429 -4.69292e-05 0 0.103327 -0.000172326 0 0.13564 -0.00033056 0 0.15511 -0.00045854 0 0.161704 -0.000505615 0 0.155361 -0.000454225 0 0.136022 -0.000324935 0 0.103658 -0.000168361 0 0.0582896 -4.52675e-05 0 0 0 0 0 0 0 0.0582079 -1.94902e-05 0 0.103441 -7.45829e-05 0 0.135758 -0.000149155 0 0.155182 -0.000212009 0 0.161701 -0.000235991 0 0.155286 -0.000210792 0 0.135904 -0.000147488 0 0.103544 -7.31896e-05 0 0.0582243 -1.85289e-05 0 0 0 0 0 0 0 0.0582292 -3.30509e-06 0 0.103486 -1.63432e-05 0 0.135809 -3.95671e-05 0 0.155214 -6.17512e-05 0 0.1617 -7.06619e-05 0 0.155251 -6.13277e-05 0 0.135852 -3.88542e-05 0 0.103497 -1.54492e-05 0 0.0582019 -2.45927e-06 0 0 0 0 0 0 0 0.0582249 6.08146e-06 0 0.10349 1.77965e-05 0 0.135819 2.51732e-05 0 0.155222 2.75734e-05 0 0.161699 2.79641e-05 0 0.155241 2.79346e-05 0 0.13584 2.58847e-05 0 0.103491 1.87657e-05 0 0.0582049 6.99037e-06 0 0 0 0 0 0 0 0.0582058 1.16006e-05 0 0.10347 3.77057e-05 0 0.135805 6.26418e-05 0 0.155216 7.91098e-05 0 0.161698 8.48404e-05 0 0.155246 7.95795e-05 0 0.135851 6.35287e-05 0 0.10351 3.88458e-05 0 0.0582231 1.25656e-05 0 0 0 0 0 0 0 0.058178 1.47776e-05 0 0.103437 4.84602e-05 0 0.135779 8.19184e-05 0 0.155202 0.00010474 0 0.161697 0.000112888 0 0.155259 0.000105306 0 0.135876 8.29515e-05 0 0.103542 4.97113e-05 0 0.05825 1.57775e-05 0 0 0 0 0 0 0 0.058146 1.57594e-05 0 0.103399 5.06954e-05 0 0.135749 8.37069e-05 0 0.155186 0.000105342 0 0.161696 0.000112832 0 0.155273 0.000105962 0 0.135904 8.48133e-05 0 0.103578 5.19948e-05 0 0.0582811 1.67611e-05 0 0 0 0 0 0 0 0.0581155 1.34169e-05 0 0.103367 3.98882e-05 0 0.135727 5.97516e-05 0 0.155175 6.93209e-05 0 0.161696 7.20547e-05 0 0.155281 6.99579e-05 0 0.135924 6.08742e-05 0 0.103609 4.11871e-05 0 0.0583109 1.43986e-05 0 0 0 0 0 0 0 0.0580961 4.62206e-06 0 0.103357 5.5648e-06 0 0.135731 -9.69725e-06 0 0.155181 -2.99193e-05 0 0.161695 -3.88812e-05 0 0.155274 -2.92915e-05 0 0.135919 -8.59263e-06 0 0.103617 6.82693e-06 0 0.0583295 5.5739e-06 0 0 0 0 0 0 0 0.0581061 -1.58371e-05 0 0.103401 -7.12563e-05 0 0.135789 -0.000158919 0 0.155222 -0.000238932 0 0.161694 -0.000270839 0 0.155231 -0.000238325 0 0.135859 -0.000157862 0 0.103573 -7.00427e-05 0 0.0583189 -1.49355e-05 0 0 0 0 0 0 0 0.0581775 -5.68137e-05 0 0.103547 -0.000220082 0 0.135951 -0.000441812 0 0.155326 -0.000629733 0 0.161693 -0.000702704 0 0.155125 -0.000629162 0 0.135696 -0.000440806 0 0.103426 -0.000218945 0 0.0582468 -5.59539e-05 0 0 0 0 0 0 0 0.058364 -0.000130723 0 0.103876 -0.000484832 0 0.136294 -0.000936186 0 0.155541 -0.00130593 0 0.161692 -0.00144765 0 0.154909 -0.0013054 0 0.135352 -0.000935256 0 0.103095 -0.000483758 0 0.0580598 -0.000129936 0 0 0 0 0 0 0 0.0587497 -0.000256038 0 0.104513 -0.000924911 0 0.13693 -0.00174741 0 0.155932 -0.00240635 0 0.161691 -0.00265593 0 0.154516 -0.00240585 0 0.134714 -0.00174653 0 0.102458 -0.000923937 0 0.0576736 -0.000255292 0 0 0 0 0 0 0 0.0594594 -0.000454621 0 0.105633 -0.00161702 0 0.13802 -0.00300605 0 0.156593 -0.00409938 0 0.16169 -0.00451135 0 0.153854 -0.0040989 0 0.133623 -0.00300524 0 0.101336 -0.00161609 0 0.0569634 -0.00045397 0 0 0 0 0 0 0 0.0606692 -0.000756041 0 0.107475 -0.00264576 0 0.139775 -0.00485392 0 0.157642 -0.00656513 0 0.16169 -0.00720215 0 0.152803 -0.00656466 0 0.131867 -0.0048531 0 0.0994939 -0.00264492 0 0.0557531 -0.000755401 0 0 0 0 0 0 0 0.0626069 -0.00118236 0 0.110337 -0.00409359 0 0.142436 -0.00740924 0 0.159216 -0.00993364 0 0.161689 -0.0108711 0 0.151228 -0.00993308 0 0.129206 -0.00740837 0 0.0966307 -0.00409267 0 0.0538152 -0.00118182 0 0 0 0 0 0 0 0.0655517 -0.00176307 0 0.114532 -0.0059921 0 0.146252 -0.0106885 0 0.161427 -0.0141922 0 0.161689 -0.0154658 0 0.149016 -0.0141915 0 0.125388 -0.0106873 0 0.0924355 -0.00599106 0 0.0508703 -0.00176241 0 0 0 0 0 0 0 0.069784 -0.00246978 0 0.120343 -0.00828477 0 0.151327 -0.0144746 0 0.164322 -0.0189404 0 0.161688 -0.020561 0 0.14612 -0.0189391 0 0.120313 -0.0144728 0 0.0866244 -0.00828309 0 0.0466382 -0.00246913 0 0 0 0 0 0 0 0.0755464 -0.00329301 0 0.127746 -0.010643 0 0.157519 -0.018048 0 0.167676 -0.0231293 0 0.161687 -0.0248623 0 0.142764 -0.0231272 0 0.11412 -0.0180449 0 0.0792227 -0.0106403 0 0.040877 -0.00329171 0 0 0 0 0 0 0 0.0827711 -0.00393203 0 0.136252 -0.0123134 0 0.163866 -0.0197622 0 0.170996 -0.0243486 0 0.161685 -0.0259347 0 0.139441 -0.0243464 0 0.107771 -0.0197574 0 0.0707181 -0.0123084 0 0.0336546 -0.0039304 0 0 0 0 0 0 0 0.0908574 -0.00415445 0 0.143462 -0.0110699 0 0.168807 -0.0157724 0 0.173501 -0.0186323 0 0.161684 -0.0195505 0 0.136934 -0.0186305 0 0.102827 -0.0157688 0 0.0635062 -0.0110625 0 0.0255749 -0.00414907 0 0 0 0 0 0 0 0.0950118 0 0 0.146223 0 0 0.170749 0 0 0.17442 0 0 0.161684 0 0 0.136014 0 0 0.100885 0 0 0.0607419 0 0 0.0214258 0 0 0 0 0
</DataArray>

      </PointData>
      <CellData Scalars="SecInvGammadot"  Vectors="ExtForce" ><DataArray Name="SecInvGammadot" type="Float32" format="ascii" >