<?xml version="1.0"?>

<VTKFile type="UnstructuredGrid" >
  <UnstructuredGrid>
    <Piece NumberOfPoints="216"  NumberOfCells="125" >
      <Cells><DataArray Name="connectivity" type="Int32" format="ascii" >
 0 36 42 6 1 37 43 7 1 37 43 7 2 38 44 8 2 38 44 8 3 39 45 9 3 39 45 9 4 40 46 10 4 40 46 10 5 41 47 11 6 42 48 12 7 43 49 13 7 43 49 13 8 44 50 14 8 44 50 14 9 45 51 15 9 45 51 15 10 46 52 16 10 46 52 16 11 47 53 17 12 48 54 18 13 49 55 19 13 49 55 19 14 50 56 20 14 50 56 20 15 51 57 21 15 51 57 21 16 52 58 22 16 52 58 22 17 53 59 23 18 54 60 24 19 55 61 25 19 55 61 25 20 56 62 26 20 56 62 26 21 57 63 27 21 57 63 27 22 58 64 28 22 58 64 28 23 59 65 29 24 60 66 30 25 61 67 31 25 61 67 31 26 62 68 32 26 62 68 32 27 63 69 33 27 63 69 33 28 64 70 34 28 64 70 34 29 65 71 35 36 72 78 42 37 73 79 43 37 73 79 43 38 74 80 44 38 74 80 44 39 75 81 45 39 75 81 45 40 76 82 46 40 76 82 46 41 77 83 47 42 78 84 48 43 79 85 49 43 79 85 49 44 80 86 50 44 80 86 50 45 81 87 51 45 81 87 51 46 82 88 52 46 82 88 52 47 83 89 53 48 84 90 54 49 85 91 55 49 85 91 55 50 86 92 56 50 86 92 56 51 87 93 57 51 87 93 57 52 88 94 58 52 88 94 58 53 89 95 59 54 90 96 60 55 91 97 61 55 91 97 61 56 92 98 62 56 92 98 62 57 93 99 63 57 93 99 63 58 94 100 64 58 94 100 64 59 95 101 65 60 96 102 66 61 97 103 67 61 97 103 67 62 98 104 68 62 98 104 68 63 99 105 69 63 99 105 69 64 100 106 70 64 100 106 70 65 101 107 71 72 108 114 78 73 109 115 79 73 109 115 79 74 110 116 80 74 110 116 80 75 111 117 81 75 111 117 81 76 112 118 82 76 112 118 82 77 113 119 83 78 114 120 84 79 115 121 85 79 115 121 85 80 116 122 86 80 116 122 86 81 117 123 87 81 117 123 87 82 118 124 88 82 118 124 88 83 119 125 89 84 120 126 90 85 121 127 91 85 121 127 91 86 122 128 92 86 122 128 92 87 123 129 93 87 123 129 93 88 124 130 94 88 124 130 94 89 125 131 95 90 126 132 96 91 127 133 97 91 127 133 97 92 128 134 98 92 128 134 98 93 129 135 99 93 129 135 99 94 130 136 100 94 130 136 100 95 131 137 101 96 132 138 102 97 133 139 103 97 133 139 103 98 134 140 104 98 134 140 104 99 135 141 105 99 135 141 105 100 136 142 106 100 136 142 106 101 137 143 107 108 144 150 114 109 145 151 115 109 145 151 115 110 146 152 116 110 146 152 116 111 147 153 117 111 147 153 117 112 148 154 118 112 148 154 118 113 149 155 119 114 150 156 120 115 151 157 121 115 151 157 121 116 152 158 122 116 152 158 122 117 153 159 123 117 153 159 123 118 154 160 124 118 154 160 124 119 155 161 125 120 156 162 126 121 157 163 127 121 157 163 127 122 158 164 128 122 158 164 128 123 159 165 129 123 159 165 129 124 160 166 130 124 160 166 130 125 161 167 131 126 162 168 132 127 163 169 133 127 163 169 133 128 164 170 134 128 164 170 134 129 165 171 135 129 165 171 135 130 166 172 136 130 166 172 136 131 167 173 137 132 168 174 138 133 169 175 139 133 169 175 139 134 170 176 140 134 170 176 140 135 171 177 141 135 171 177 141 136 172 178 142 136 172 178 142 137 173 179 143 144 180 186 150 145 181 187 151 145 181 187 151 146 182 188 152 146 182 188 152 147 183 189 153 147 183 189 153 148 184 190 154 148 184 190 154 149 185 191 155 150 186 192 156 151 187 193 157 151 187 193 157 152 188 194 158 152 188 194 158 153 189 195 159 153 189 195 159 154 190 196 160 154 190 196 160 155 191 197 161 156 192 198 162 157 193 199 163 157 193 199 163 158 194 200 164 158 194 200 164 159 195 201 165 159 195 201 165 160 196 202 166 160 196 202 166 161 197 203 167 162 198 204 168 163 199 205 169 163 199 205 169 164 200 206 170 164 200 206 170 165 201 207 171 165 201 207 171 166 202 208 172 166 202 208 172 167 203 209 173 168 204 210 174 169 205 211 175 169 205 211 175 170 206 212 176 170 206 212 176 171 207 213 177 171 207 213 177 172 208 214 178 172 208 214 178 173 209 215 179
</DataArray>
<DataArray Name="offsets" type="Int32" format="ascii" >
 8 16 24 32 40 48 56 64 72 80 88 96 104 112 120 128 136 144 152 160 168 176 184 192 200 208 216 224 232 240 248 256 264 272 280 288 296 304 312 320 328 336 344 352 360 368 376 384 392 400 408 416 424 432 440 448 456 464 472 480 488 496 504 512 520 528 536 544 552 560 568 576 584 592 600 608 616 624 632 640 648 656 664 672 680 688 696 704 712 720 728 736 744 752 760 768 776 784 792 800 808 816 824 832 840 848 856 864 872 880 888 896 904 912 920 928 936 944 952 960 968 976 984 992 1000
</DataArray>
<DataArray Name="types" type="Int32" format="ascii" >
 12 12 12 12 12 12 12 12 12 12 12 12 12 12 12 12 12 12 12 12 12 12 12 12 12 12 12 12 12 12 12 12 12 12 12 12 12 12 12 12 12 12 12 12 12 12 12 12 12 12 12 12 12 12 12 12 12 12 12 12 12 12 12 12 12 12 12 12 12 12 12 12 12 12 12 12 12 12 12 12 12 12 12 12 12 12 12 12 12 12 12 12 12 12 12 12 12 12 12 12 12 12 12 12 12 12 12 12 12 12 12 12 12 12 12 12 12 12 12 12 12 12 12 12 12
</DataArray>

      </Cells>
      <Points><DataArray NumberOfComponents="3" type="Float32" format="ascii" >
 0 0 0 0 0 0.2 0 0 0.4 0 0 0.6 0 0 0.8 0 0 1 0 0.2 0 0 0.2 0.2 0 0.2 0.4 0 0.2 0.6 0 0.2 0.8 0 0.2 1 0 0.4 0 0 0.4 0.2 0 0.4 0.4 0 0.4 0.6 0 0.4 0.8 0 0.4 1 0 0.6 0 0 0.6 0.2 0 0.6 0.4 0 0.6 0.6 0 0.6 0.8 0 0.6 1 0 0.8 0 0 0.8 0.2 0 0.8 0.4 0 0.8 0.6 0 0.8 0.8 0 0.8 1 0 1 0 0 1 0.2 0 1 0.4 0 1 0.6 0 1 0.8 0 1 1 0.2 0 0 0.2 0 0.2 0.2 0 0.4 0.2 0 0.6 0.2 0 0.8 0.2 0 1 0.2 0.2 0 0.2 0.2 0.2 0.2 0.2 0.4 0.2 0.2 0.6 0.2 0.2 0.8 0.2 0.2 1 0.2 0.4 0 0.2 0.4 0.2 0.2 0.4 0.4 0.2 0.4 0.6 0.2 0.4 0.8 0.2 0.4 1 0.2 0.6 0 0.2 0.6 0.2 0.2 0.6 0.4 0.2 0.6 0.6 0.2 0.6 0.8 0.2 0.6 1 0.2 0.8 0 0.2 0.8 0.2 0.2 0.8 0.4 0.2 0.8 0.6 0.2 0.8 0.8 0.2 0.8 1 0.2 1 0 0.2 1 0.2 0.2 1 0.4 0.2 1 0.6 0.2 1 0.8 0.2 1 1 0.4 0 0 0.4 0 0.2 0.4 0 0.4 0.4 0 0.6 0.4 0 0.8 0.4 0 1 0.4 0.2 0 0.4 0.2 0.2 0.4 0.2 0.4 0.4 0.2 0.6 0.4 0.2 0.8 0.4 0.2 1 0.4 0.4 0 0.4 0.4 0.2 0.4 0.4 0.4 0.4 0.4 0.6 0.4 0.4 0.8 0.4 0.4 1 0.4 0.6 0 0.4 0.6 0.2 0.4 0.6 0.4 0.4 0.6 0.6 0.4 0.6 0.8 0.4 0.6 1 0.4 0.8 0 0.4 0.8 0.2 0.4 0.8 0.4 0.4 0.8 0.6 0.4 0.8 0.8 0.4 0.8 1 0.4 1 0 0.4 1 0.2 0.4 1 0.4 0.4 1 0.6 0.4 1 0.8 0.4 1 1 0.6 0 0 0.6 0 0.2 0.6 0 0.4 0.6 0 0.6 0.6 0 0.8 0.6 0 1 0.6 0.2 0 0.6 0.2 0.2 0.6 0.2 0.4 0.6 0.2 0.6 0.6 0.2 0.8 0.6 0.2 1 0.6 0.4 0 0.6 0.4 0.2 0.6 0.4 0.4 0.6 0.4 0.6 0.6 0.4 0.8 0.6 0.4 1 0.6 0.6 0 0.6 0.6 0.2 0.6 0.6 0.4 0.6 0.6 0.6 0.6 0.6 0.8 0.6 0.6 1 0.6 0.8 0 0.6 0.8 0.2 0.6 0.8 0.4 0.6 0.8 0.6 0.6 0.8 0.8 0.6 0.8 1 0.6 1 0 0.6 1 0.2 0.6 1 0.4 0.6 1 0.6 0.6 1 0.8 0.6 1 1 0.8 0 0 0.8 0 0.2 0.8 0 0.4 0.8 0 0.6 0.8 0 0.8 0.8 0 1 0.8 0.2 0 0.8 0.2 0.2 0.8 0.2 0.4 0.8 0.2 0.6 0.8 0.2 0.8 0.8 0.2 1 0.8 0.4 0 0.8 0.4 0.2 0.8 0.4 0.4 0.8 0.4 0.6 0.8 0.4 0.8 0.8 0.4 1 0.8 0.6 0 0.8 0.6 0.2 0.8 0.6 0.4 0.8 0.6 0.6 0.8 0.6 0.8 0.8 0.6 1 0.8 0.8 0 0.8 0.8 0.2 0.8 0.8 0.4 0.8 0.8 0.6 0.8 0.8 0.8 0.8 0.8 1 0.8 1 0 0.8 1 0.2 0.8 1 0.4 0.8 1 0.6 0.8 1 0.8 0.8 1 1 1 0 0 1 0 0.2 1 0 0.4 1 0 0.6 1 0 0.8 1 0 1 1 0.2 0 1 0.2 0.2 1 0.2 0.4 1 0.2 0.6 1 0.2 0.8 1 0.2 1 1 0.4 0 1 0.4 0.2 1 0.4 0.4 1 0.4 0.6 1 0.4 0.8 1 0.4 1 1 0.6 0 1 0.6 0.2 1 0.6 0.4 1 0.6 0.6 1 0.6 0.8 1 0.6 1 1 0.8 0 1 0.8 0.2 1 0.8 0.4 1 0.8 0.6 1 0.8 0.8 1 0.8 1 1 1 0 1 1 0.2 1 1 0.4 1 1 0.6 1 1 0.8 1 1 1
</DataArray>

      </Points>
      <PointData Vectors="Velocity" ><DataArray Name="Velocity" NumberOfComponents="3" type="Float32" format="ascii" >
 0 0 0 0 0 0.2 0 0 0.4 0 0 0.6 0 0 0.8 0 0 1 0 0.2 0 0 0.2 0.2 0 0.2 0.4 0 0.2 0.6 0 0.2 0.8 0 0.2 1 0 0.4 0 0 0.4 0.2 0 0.4 0.4 0 0.4 0.6 0 0.4 0.8 0 0.4 1 0 0.6 0 0 0.6 0.2 0 0.6 0.4 0 0.6 0.6 0 0.6 0.8 0 0.6 1 0 0.8 0 0 0.8 0.2 0 0.8 0.4 0 0.8 0.6 0 0.8 0.8 0 0.8 1 6.93889e-18 1 0 6.93889e-18 1 0.2 6.93889e-18 1 0.4 6.93889e-18 1 0.6 6.93889e-18 1 0.8 0 1 1 0.2 0 0 0.2 0 0.2 0.2 0 0.4 0.2 0 0.6 0.2 0 0.8 0.2 0 1 0.2 0.2 0 0.2 0.2 0.2 0.2 0.2 0.4 0.2 0.2 0.6 0.2 0.2 0.8 0.2 0.2 1 0.2 0.4 0 0.2 0.4 0.2 0.2 0.4 0.4 0.2 0.4 0.6 0.2 0.4 0.8 0.2 0.4 1 0.2 0.6 0 0.2 0.6 0.2 0.2 0.6 0.4 0.2 0.6 0.6 0.2 0.6 0.8 0.2 0.6 1 0.2 0.8 0 0.2 0.8 0.2 0.2 0.8 0.4 0.2 0.8 0.6 0.2 0.8 0.8 0.2 0.8 1 0.2 1 0 0.2 1 0.2 0.2 1 0.4 0.2 1 0.6 0.2 1 0.8 0.2 1 1 0.4 0 0 0.4 0 0.2 0.4 0 0.4 0.4 0 0.6 0.4 0 0.8 0.4 0 1 0.4 0.2 0 0.4 0.2 0.2 0.4 0.2 0.4 0.4 0.2 0.6 0.4 0.2 0.8 0.4 0.2 1 0.4 0.4 0 0.4 0.4 0.2 0.4 0.4 0.4 0.4 0.4 0.6 0.4 0.4 0.8 0.4 0.4 1 0.4 0.6 0 0.4 0.6 0.2 0.4 0.6 0.4 0.4 0.6 0.6 0.4 0.6 0.8 0.4 0.6 1 0.4 0.8 0 0.4 0.8 0.2 0.4 0.8 0.4 0.4 0.8 0.6 0.4 0.8 0.8 0.4 0.8 1 0.4 1 0 0.4 1 0.2 0.4 1 0.4 0.4 1 0.6 0.4 1 0.8 0.4 1 1 0.6 0 0 0.6 0 0.2 0.6 0 0.4 0.6 0 0.6 0.6 0 0.8 0.6 0 1 0.6 0.2 0 0.6 0.2 0.2 0.6 0.2 0.4 0.6 0.2 0.6 0.6 0.2 0.8 0.6 0.2 1 0.6 0.4 0 0.6 0.4 0.2 0.6 0.4 0.4 0.6 0.4 0.6 0.6 0.4 0.8 0.6 0.4 1 0.6 0.6 0 0.6 0.6 0.2 0.6 0.6 0.4 0.6 0.6 0.6 0.6 0.6 0.8 0.6 0.6 1 0.6 0.8 0 0.6 0.8 0.2 0.6 0.8 0.4 0.6 0.8 0.6 0.6 0.8 0.8 0.6 0.8 1 0.6 1 0 0.6 1 0.2 0.6 1 0.4 0.6 1 0.6 0.6 1 0.8 0.6 1 1 0.8 0 0 0.8 0 0.2 0.8 0 0.4 0.8 0 0.6 0.8 0 0.8 0.8 0 1 0.8 0.2 0 0.8 0.2 0.2 0.8 0.2 0.4 0.8 0.2 0.6 0.8 0.2 0.8 0.8 0.2 1 0.8 0.4 0 0.8 0.4 0.2 0.8 0.4 0.4 0.8 0.4 0.6 0.8 0.4 0.8 0.8 0.4 1 0.8 0.6 0 0.8 0.6 0.2 0.8 0.6 0.4 0.8 0.6 0.6 0.8 0.6 0.8 0.8 0.6 1 0.8 0.8 0 0.8 0.8 0.2 0.8 0.8 0.4 0.8 0.8 0.6 0.8 0.8 0.8 0.8 0.8 1 0.8 1 0 0.8 1 0.2 0.8 1 0.4 0.8 1 0.6 0.8 1 0.8 0.8 1 1 1 6.93889e-18 0 1 6.93889e-18 0.2 1 6.93889e-18 0.4 1 6.93889e-18 0.6 1 6.93889e-18 0.8 1 1.38778e-17 1 1 0.2 0 1 0.2 0.2 1 0.2 0.4 1 0.2 0.6 1 0.2 0.8 1 0.2 1 1 0.4 0 1 0.4 0.2 1 0.4 0.4 1 0.4 0.6 1 0.4 0.8 1 0.4 1 1 0.6 0 1 0.6 0.2 1 0.6 0.4 1 0.6 0.6 1 0.6 0.8 1 0.6 1 1 0.8 0 1 0.8 0.2 1 0.8 0.4 1 0.8 0.6 1 0.8 0.8 1 0.8 1 1 1 0 1 1 0.2 1 1 0.4 1 1 0.6 1 1 0.8 1 1 1
</DataArray>

      </PointData>
      <CellData Scalars="Pressure" ><DataArray Name="Pressure" type="Float32" format="ascii" >
 0.1 0.1 0.1 0.1 0.1 0.1 0.1 0.1 0.1 0.1 0.1 0.1 0.1 0.1 0.1 0.1 0.1 0.1 0.1 0.1 0.1 0.1 0.1 0.1 0.1 0.3 0.3 0.3 0.3 0.3 0.3 0.3 0.3 0.3 0.3 0.3 0.3 0.3 0.3 0.3 0.3 0.3 0.3 0.3 0.3 0.3 0.3 0.3 0.3 0.3 0.5 0.5 0.5 0.5 0.5 0.5 0.5 0.5 0.5 0.5 0.5 0.5 0.5 0.5 0.5 0.5 0.5 0.5 0.5 0.5 0.5 0.5 0.5 0.5 0.5 0.7 0.7 0.7 0.7 0.7 0.7 0.7 0.7 0.7 0.7 0.7 0.7 0.7 0.7 0.7 0.7 0.7 0.7 0.7 0.7 0.7 0.7 0.7 0.7 0.7 0.9 0.9 0.9 0.9 0.9 0.9 0.9 0.9 0.9 0.9 0.9 0.9 0.9 0.9 0.9 0.9 0.9 0.9 0.9 0.9 0.9 0.9 0.9 0.9 0.9
</DataArray>

      </CellData>
    </Piece>
  </UnstructuredGrid>
</VTKFile>