<?xml version="1.0"?>

<VTKFile type="UnstructuredGrid" >
  <UnstructuredGrid>
    <Piece NumberOfPoints="1326"  NumberOfCells="1250" >
      <Cells><DataArray Name="connectivity" type="Int32" format="ascii" >
 0 26 27 1 1 27 28 2 2 28 29 3 3 29 30 4 4 30 31 5 5 31 32 6 6 32 33 7 7 33 34 8 8 34 35 9 9 35 36 10 10 36 37 11 11 37 38 12 12 38 39 13 13 39 40 14 14 40 41 15 15 41 42 16 16 42 43 17 17 43 44 18 18 44 45 19 19 45 46 20 20 46 47 21 21 47 48 22 22 48 49 23 23 49 50 24 24 50 51 25 26 52 53 27 27 53 54 28 28 54 55 29 29 55 56 30 30 56 57 31 31 57 58 32 32 58 59 33 33 59 60 34 34 60 61 35 35 61 62 36 36 62 63 37 37 63 64 38 38 64 65 39 39 65 66 40 40 66 67 41 41 67 68 42 42 68 69 43 43 69 70 44 44 70 71 45 45 71 72 46 46 72 73 47 47 73 74 48 48 74 75 49 49 75 76 50 50 76 77 51 52 78 79 53 53 79 80 54 54 80 81 55 55 81 82 56 56 82 83 57 57 83 84 58 58 84 85 59 59 85 86 60 60 86 87 61 61 87 88 62 62 88 89 63 63 89 90 64 64 90 91 65 65 91 92 66 66 92 93 67 67 93 94 68 68 94 95 69 69 95 96 70 70 96 97 71 71 97 98 72 72 98 99 73 73 99 100 74 74 100 101 75 75 101 102 76 76 102 103 77 78 104 105 79 79 105 106 80 80 106 107 81 81 107 108 82 82 108 109 83 83 109 110 84 84 110 111 85 85 111 112 86 86 112 113 87 87 113 114 88 88 114 115 89 89 115 116 90 90 116 117 91 91 117 118 92 92 118 119 93 93 119 120 94 94 120 121 95 95 121 122 96 96 122 123 97 97 123 124 98 98 124 125 99 99 125 126 100 100 126 127 101 101 127 128 102 102 128 129 103 104 130 131 105 105 131 132 106 106 132 133 107 107 133 134 108 108 134 135 109 109 135 136 110 110 136 137 111 111 137 138 112 112 138 139 113 113 139 140 114 114 140 141 115 115 141 142 116 116 142 143 117 117 143 144 118 118 144 145 119 119 145 146 120 120 146 147 121 121 147 148 122 122 148 149 123 123 149 150 124 124 150 151 125 125 151 152 126 126 152 153 127 127 153 154 128 128 154 155 129 130 156 157 131 131 157 158 132 132 158 159 133 133 159 160 134 134 160 161 135 135 161 162 136 136 162 163 137 137 163 164 138 138 164 165 139 139 165 166 140 140 166 167 141 141 167 168 142 142 168 169 143 143 169 170 144 144 170 171 145 145 171 172 146 146 172 173 147 147 173 174 148 148 174 175 149 149 175 176 150 150 176 177 151 151 177 178 152 152 178 179 153 153 179 180 154 154 180 181 155 156 182 183 157 157 183 184 158 158 184 185 159 159 185 186 160 160 186 187 161 161 187 188 162 162 188 189 163 163 189 190 164 164 190 191 165 165 191 192 166 166 192 193 167 167 193 194 168 168 194 195 169 169 195 196 170 170 196 197 171 171 197 198 172 172 198 199 173 173 199 200 174 174 200 201 175 175 201 202 176 176 202 203 177 177 203 204 178 178 204 205 179 179 205 206 180 180 206 207 181 182 208 209 183 183 209 210 184 184 210 211 185 185 211 212 186 186 212 213 187 187 213 214 188 188 214 215 189 189 215 216 190 190 216 217 191 191 217 218 192 192 218 219 193 193 219 220 194 194 220 221 195 195 221 222 196 196 222 223 197 197 223 224 198 198 224 225 199 199 225 226 200 200 226 227 201 201 227 228 202 202 228 229 203 203 229 230 204 204 230 231 205 205 231 232 206 206 232 233 207 208 234 235 209 209 235 236 210 210 236 237 211 211 237 238 212 212 238 239 213 213 239 240 214 214 240 241 215 215 241 242 216 216 242 243 217 217 243 244 218 218 244 245 219 219 245 246 220 220 246 247 221 221 247 248 222 222 248 249 223 223 249 250 224 224 250 251 225 225 251 252 226 226 252 253 227 227 253 254 228 228 254 255 229 229 255 256 230 230 256 257 231 231 257 258 232 232 258 259 233 234 260 261 235 235 261 262 236 236 262 263 237 237 263 264 238 238 264 265 239 239 265 266 240 240 266 267 241 241 267 268 242 242 268 269 243 243 269 270 244 244 270 271 245 245 271 272 246 246 272 273 247 247 273 274 248 248 274 275 249 249 275 276 250 250 276 277 251 251 277 278 252 252 278 279 253 253 279 280 254 254 280 281 255 255 281 282 256 256 282 283 257 257 283 284 258 258 284 285 259 260 286 287 261 261 287 288 262 262 288 289 263 263 289 290 264 264 290 291 265 265 291 292 266 266 292 293 267 267 293 294 268 268 294 295 269 269 295 296 270 270 296 297 271 271 297 298 272 272 298 299 273 273 299 300 274 274 300 301 275 275 301 302 276 276 302 303 277 277 303 304 278 278 304 305 279 279 305 306 280 280 306 307 281 281 307 308 282 282 308 309 283 283 309 310 284 284 310 311 285 286 312 313 287 287 313 314 288 288 314 315 289 289 315 316 290 290 316 317 291 291 317 318 292 292 318 319 293 293 319 320 294 294 320 321 295 295 321 322 296 296 322 323 297 297 323 324 298 298 324 325 299 299 325 326 300 300 326 327 301 301 327 328 302 302 328 329 303 303 329 330 304 304 330 331 305 305 331 332 306 306 332 333 307 307 333 334 308 308 334 335 309 309 335 336 310 310 336 337 311 312 338 339 313 313 339 340 314 314 340 341 315 315 341 342 316 316 342 343 317 317 343 344 318 318 344 345 319 319 345 346 320 320 346 347 321 321 347 348 322 322 348 349 323 323 349 350 324 324 350 351 325 325 351 352 326 326 352 353 327 327 353 354 328 328 354 355 329 329 355 356 330 330 356 357 331 331 357 358 332 332 358 359 333 333 359 360 334 334 360 361 335 335 361 362 336 336 362 363 337 338 364 365 339 339 365 366 340 340 366 367 341 341 367 368 342 342 368 369 343 343 369 370 344 344 370 371 345 345 371 372 346 346 372 373 347 347 373 374 348 348 374 375 349 349 375 376 350 350 376 377 351 351 377 378 352 352 378 379 353 353 379 380 354 354 380 381 355 355 381 382 356 356 382 383 357 357 383 384 358 358 384 385 359 359 385 386 360 360 386 387 361 361 387 388 362 362 388 389 363 364 390 391 365 365 391 392 366 366 392 393 367 367 393 394 368 368 394 395 369 369 395 396 370 370 396 397 371 371 397 398 372 372 398 399 373 373 399 400 374 374 400 401 375 375 401 402 376 376 402 403 377 377 403 404 378 378 404 405 379 379 405 406 380 380 406 407 381 381 407 408 382 382 408 409 383 383 409 410 384 384 410 411 385 385 411 412 386 386 412 413 387 387 413 414 388 388 414 415 389 390 416 417 391 391 417 418 392 392 418 419 393 393 419 420 394 394 420 421 395 395 421 422 396 396 422 423 397 397 423 424 398 398 424 425 399 399 425 426 400 400 426 427 401 401 427 428 402 402 428 429 403 403 429 430 404 404 430 431 405 405 431 432 406 406 432 433 407 407 433 434 408 408 434 435 409 409 435 436 410 410 436 437 411 411 437 438 412 412 438 439 413 413 439 440 414 414 440 441 415 416 442 443 417 417 443 444 418 418 444 445 419 419 445 446 420 420 446 447 421 421 447 448 422 422 448 449 423 423 449 450 424 424 450 451 425 425 451 452 426 426 452 453 427 427 453 454 428 428 454 455 429 429 455 456 430 430 456 457 431 431 457 458 432 432 458 459 433 433 459 460 434 434 460 461 435 435 461 462 436 436 462 463 437 437 463 464 438 438 464 465 439 439 465 466 440 440 466 467 441 442 468 469 443 443 469 470 444 444 470 471 445 445 471 472 446 446 472 473 447 447 473 474 448 448 474 475 449 449 475 476 450 450 476 477 451 451 477 478 452 452 478 479 453 453 479 480 454 454 480 481 455 455 481 482 456 456 482 483 457 457 483 484 458 458 484 485 459 459 485 486 460 460 486 487 461 461 487 488 462 462 488 489 463 463 489 490 464 464 490 491 465 465 491 492 466 466 492 493 467 468 494 495 469 469 495 496 470 470 496 497 471 471 497 498 472 472 498 499 473 473 499 500 474 474 500 501 475 475 501 502 476 476 502 503 477 477 503 504 478 478 504 505 479 479 505 506 480 480 506 507 481 481 507 508 482 482 508 509 483 483 509 510 484 484 510 511 485 485 511 512 486 486 512 513 487 487 513 514 488 488 514 515 489 489 515 516 490 490 516 517 491 491 517 518 492 492 518 519 493 494 520 521 495 495 521 522 496 496 522 523 497 497 523 524 498 498 524 525 499 499 525 526 500 500 526 527 501 501 527 528 502 502 528 529 503 503 529 530 504 504 530 531 505 505 531 532 506 506 532 533 507 507 533 534 508 508 534 535 509 509 535 536 510 510 536 537 511 511 537 538 512 512 538 539 513 513 539 540 514 514 540 541 515 515 541 542 516 516 542 543 517 517 543 544 518 518 544 545 519 520 546 547 521 521 547 548 522 522 548 549 523 523 549 550 524 524 550 551 525 525 551 552 526 526 552 553 527 527 553 554 528 528 554 555 529 529 555 556 530 530 556 557 531 531 557 558 532 532 558 559 533 533 559 560 534 534 560 561 535 535 561 562 536 536 562 563 537 537 563 564 538 538 564 565 539 539 565 566 540 540 566 567 541 541 567 568 542 542 568 569 543 543 569 570 544 544 570 571 545 546 572 573 547 547 573 574 548 548 574 575 549 549 575 576 550 550 576 577 551 551 577 578 552 552 578 579 553 553 579 580 554 554 580 581 555 555 581 582 556 556 582 583 557 557 583 584 558 558 584 585 559 559 585 586 560 560 586 587 561 561 587 588 562 562 588 589 563 563 589 590 564 564 590 591 565 565 591 592 566 566 592 593 567 567 593 594 568 568 594 595 569 569 595 596 570 570 596 597 571 572 598 599 573 573 599 600 574 574 600 601 575 575 601 602 576 576 602 603 577 577 603 604 578 578 604 605 579 579 605 606 580 580 606 607 581 581 607 608 582 582 608 609 583 583 609 610 584 584 610 611 585 585 611 612 586 586 612 613 587 587 613 614 588 588 614 615 589 589 615 616 590 590 616 617 591 591 617 618 592 592 618 619 593 593 619 620 594 594 620 621 595 595 621 622 596 596 622 623 597 598 624 625 599 599 625 626 600 600 626 627 601 601 627 628 602 602 628 629 603 603 629 630 604 604 630 631 605 605 631 632 606 606 632 633 607 607 633 634 608 608 634 635 609 609 635 636 610 610 636 637 611 611 637 638 612 612 638 639 613 613 639 640 614 614 640 641 615 615 641 642 616 616 642 643 617 617 643 644 618 618 644 645 619 619 645 646 620 620 646 647 621 621 647 648 622 622 648 649 623 624 650 651 625 625 651 652 626 626 652 653 627 627 653 654 628 628 654 655 629 629 655 656 630 630 656 657 631 631 657 658 632 632 658 659 633 633 659 660 634 634 660 661 635 635 661 662 636 636 662 663 637 637 663 664 638 638 664 665 639 639 665 666 640 640 666 667 641 641 667 668 642 642 668 669 643 643 669 670 644 644 670 671 645 645 671 672 646 646 672 673 647 647 673 674 648 648 674 675 649 650 676 677 651 651 677 678 652 652 678 679 653 653 679 680 654 654 680 681 655 655 681 682 656 656 682 683 657 657 683 684 658 658 684 685 659 
[...]
      <PointData Vectors="UU" ><DataArray Name="UU" NumberOfComponents="3" type="Float32" format="ascii" >
 0 0 0 4.7749e-15 0.0108592 0 1.62456e-14 0.0394397 0 2.76567e-14 0.0807779 0 3.59212e-14 0.130462 0 4.36904e-14 0.184559 0 4.03393e-14 0.239591 0 4.69156e-14 0.292515 0 4.1361e-14 0.340719 0 3.48715e-14 0.382017 0 3.74955e-14 0.414652 0 3.18177e-14 0.437296 0 1.99938e-14 0.449052 0 8.75098e-15 0.449459 0 1.67383e-14 0.438492 0 2.38612e-14 0.416561 0 2.00014e-14 0.384514 0 1.42548e-14 0.343635 0 -2.67494e-15 0.295642 0 -7.01466e-15 0.242694 0 -6.30311e-15 0.187393 0 -4.46037e-15 0.132798 0 -9.30817e-15 0.0824434 0 -1.23849e-14 0.0403668 0 -9.92385e-15 0.0111486 0 0 0 0 0 0 0 -0.02143 0.0107755 0 -0.0372956 0.0391349 0 -0.04825 0.0801519 0 -0.0548386 0.129448 0 -0.0575553 0.183122 0 -0.0568669 0.237721 0 -0.0532262 0.290228 0 -0.0470804 0.33805 0 -0.0388752 0.37902 0 -0.0290582 0.411394 0 -0.0180793 0.433855 0 -0.00639136 0.445513 0 0.00555082 0.445912 0 0.0172914 0.435027 0 0.0283746 0.413264 0 0.0383451 0.381467 0 0.0467479 0.340907 0 0.0531265 0.293291 0 0.0570205 0.24076 0 0.0579598 0.185896 0 0.0554584 0.131735 0 0.0490037 0.081782 0 0.0380425 0.0400422 0 0.0219552 0.0110587 0 0 0 0 0 0 0 -0.042529 0.0105257 0 -0.0740127 0.0382248 0 -0.0957485 0.0782829 0 -0.10882 0.126422 0 -0.114207 0.178832 0 -0.112838 0.23214 0 -0.105611 0.2834 0 -0.0934136 0.330083 0 -0.0771305 0.370073 0 -0.0576497 0.401669 0 -0.035864 0.423584 0 -0.012672 0.434952 0 0.011024 0.435327 0 0.0343195 0.424686 0 0.0563101 0.403428 0 0.0760923 0.372373 0 0.0927631 0.332768 0 0.105417 0.286276 0 0.11314 0.234991 0 0.115001 0.181433 0 0.110034 0.128565 0 0.0972248 0.079809 0 0.075475 0.0390736 0 0.0435568 0.0107904 0 0 0 0 0 0 0 -0.0629709 0.0101133 0 -0.109581 0.0367227 0 -0.141756 0.0751985 0 -0.1611 0.121429 0 -0.169067 0.171752 0 -0.167032 0.222931 0 -0.156327 0.272137 0 -0.138265 0.316942 0 -0.114156 0.355316 0 -0.0853157 0.385628 0 -0.0530648 0.406645 0 -0.0187334 0.417535 0 0.0163427 0.417872 0 0.0508247 0.407635 0 0.0833737 0.387208 0 0.112653 0.35738 0 0.137324 0.319348 0 0.156049 0.274712 0 0.167474 0.22548 0 0.17022 0.174075 0 0.16286 0.123339 0 0.143894 0.0765574 0 0.111698 0.0374775 0 0.0644573 0.0103484 0 0 0 0 0 0 0 -0.0824389 0.00954429 0 -0.143449 0.0346504 0 -0.185553 0.070944 0 -0.210859 0.114543 0 -0.221273 0.161991 0 -0.218595 0.210235 0 -0.204571 0.25661 0 -0.180922 0.298828 0 -0.149363 0.334977 0 -0.111613 0.363522 0 -0.0694027 0.383302 0 -0.024472 0.393536 0 0.021431 0.393823 0 0.0665543 0.384144 0 0.109146 0.364864 0 0.147455 0.336728 0 0.179732 0.300865 0 0.204225 0.258786 0 0.219162 0.212384 0 0.222741 0.163944 0 0.213097 0.116146 0 0.188266 0.0720819 0 0.146131 0.0352811 0 0.0843212 0.00974027 0 0 0 0 0 0 0 -0.100631 0.00882689 0 -0.175087 0.0320383 0 -0.226457 0.0655825 0 -0.257319 0.105866 0 -0.270004 0.149694 0 -0.266715 0.194244 0 -0.249583 0.237056 0 -0.220711 0.27602 0 -0.182191 0.309372 0 -0.136121 0.335695 0 -0.0846139 0.353922 0 -0.0297908 0.363333 0 0.0262151 0.36356 0 0.0812663 0.354587 0 0.133225 0.336753 0 0.179955 0.310749 0 0.219322 0.277618 0 0.249186 0.238757 0 0.26739 0.195918 0 0.271734 0.151208 0 0.259946 0.107104 0 0.229636 0.0664576 0 0.178225 0.0325214 0 0.10283 0.00897634 0 0 0 0 0 0 0 -0.117262 0.00797154 0 -0.204002 0.0289249 0 -0.263826 0.0591936 0 -0.299749 0.0955293 0 -0.314495 0.135047 0 -0.310633 0.175202 0 -0.290652 0.213776 0 -0.257001 0.24887 0 -0.212119 0.278896 0 -0.158451 0.302581 0 -0.0984545 0.318965 0 -0.0346017 0.327402 0 0.0306239 0.327562 0 0.0947328 0.319434 0 0.155235 0.303325 0 0.209643 0.27986 0 0.25547 0.249981 0 0.290225 0.214951 0 0.311396 0.176349 0 0.316424 0.136077 0 0.302666 0.0963635 0 0.267346 0.0597783 0 0.20747 0.029245 0 0.11969 0.00806963 0 0 0 0 0 0 0 -0.132073 0.00699077 0 -0.229738 0.0253562 0 -0.297072 0.0518726 0 -0.337482 0.083688 0 -0.354043 0.118273 0 -0.349657 0.153399 0 -0.327129 0.187128 0 -0.289219 0.217797 0 -0.238675 0.244024 0 -0.178248 0.264697 0 -0.110704 0.278979 0 -0.0388269 0.286307 0 0.0345897 0.286398 0 0.106743 0.279242 0 0.174831 0.265111 0 0.236052 0.244555 0 0.287608 0.2184 0 0.326695 0.187753 0 0.350486 0.153997 0 0.356105 0.118797 0 0.340582 0.0841017 0 0.300801 0.052155 0 0.233402 0.0255067 0 0.134633 0.00703544 0 0 0 0 0 0 0 -0.144828 0.00589909 0 -0.25189 0.0213853 0 -0.325672 0.0437297 0 -0.369922 0.0705215 0 -0.388026 0.0996272 0 -0.383171 0.129171 0 -0.358439 0.157521 0 -0.316858 0.183284 0 -0.26144 0.205299 0 -0.1952 0.222634 0 -0.121171 0.23459 0 -0.0424004 0.240697 0 0.0380494 0.240718 0 0.117108 0.23465 0 0.191702 0.222722 0 0.258765 0.2054 0 0.315228 0.183382 0 0.358019 0.157602 0 0.384043 0.129224 0 0.390151 0.0996507 0 0.373097 0.0705197 0 0.329473 0.0437137 0 0.255614 0.0213687 0 0.147424 0.00589111 0 0 0 0 0 0 0 -0.155325 0.00471278 0 -0.270105 0.0170721 0 -0.349169 0.0348879 0 -0.396555 0.0562302 0 -0.415906 0.0793951 0 -0.410647 0.102888 0 -0.38409 0.125414 0 -0.339483 0.145865 0 -0.280057 0.163323 0 -0.209044 0.177052 0 -0.129693 0.186497 0 -0.045269 0.19129 0 0.0409452 0.191245 0 0.12566 0.186363 0 0.205582 0.17683 0 0.277422 0.163019 0 0.337893 0.145488 0 0.383704 0.124982 0 0.411539 0.102431 0 0.418028 0.0789491 0 0.3997 0.0558391 0 0.352913 0.0345928 0 0.273758 0.0168992 0 0.157863 0.00465565 0 0 0 0 0 0 0 -0.163394 0.00344973 0 -0.28409 0.0124819 0 -0.36719 0.0254822 0 -0.416958 0.041033 0 -0.43724 0.0578883 0 -0.431651 0.0749591 0 -0.403677 0.0913044 0 -0.35674 0.106124 0 -0.294236 0.118753 0 -0.219565 0.128663 0 -0.136139 0.135454 0 -0.0473928 0.138864 0 0.0432262 0.13876 0 0.132259 0.135148 0 0.216245 0.128165 0 0.291725 0.118087 0 0.355245 0.105323 0 0.403344 0.090417 0 0.432541 0.0740476 0 0.439298 0.0570264 0 0.419975 0.0402979 0 0.370758 0.024941 0 0.287553 0.0121716 0 0.165791 0.00334941 0 0 0 0 0 0 0 -0.168903 0.00212917 0 -0.293619 0.00768498 0 -0.379443 0.015657 0 -0.430803 0.0251645 0 -0.45169 0.0354396 0 -0.44585 0.0458165 0 -0.416894 0.0557245 0 -0.36836 0.0646809 0 -0.303759 0.0722872 0 -0.226603 0.0782271 0 -0.140417 0.0822646 0 -0.0487457 0.0842442 0 0.0448491 0.0840914 0 0.136795 0.0818131 0 0.223517 0.0774983 0 0.301443 0.0713182 0 0.367004 0.0635264 0 0.416628 0.0544582 0 0.446719 0.0445293 0 0.453629 0.0342345 0 0.433609 0.0241466 0 0.382732 0.0149143 0 0.29679 0.00726237 0 0.171087 0.00199364 0 0 0 0 0 0 0 -0.171759 0.000771474 0 -0.298532 0.0027555 0 -0.385727 0.00556479 0 -0.437866 0.00887129 0 -0.459023 0.0123986 0 -0.45302 0.0159156 0 -0.423533 0.0192303 0 -0.374164 0.0221852 0 -0.308482 0.0246536 0 -0.230055 0.0265373 0 -0.142466 0.0277651 0 -0.0493151 0.0282925 0 0.0457794 0.0281017 0 0.139188 0.0272023 0 0.227277 0.0256312 0 0.306418 0.0234535 0 0.372983 0.0207622 0 0.423343 0.0176775 0 0.453849 0.0143458 0 0.460799 0.0109373 0 0.440393 0.00764342 0 0.388656 0.00467329 0 0.301332 0.00225047 0 0.173675 0.000610176 0 0 0 0 0 0 0 -0.17191 -0.000602173 0 -0.298741 -0.00222954 0 -0.385932 -0.00463673 0 -0.438026 -0.00759168 0 -0.459119 -0.0108734 0 -0.453045 -0.0142747 0 -0.423492 -0.0176052 0 -0.374065 -0.0206952 0 -0.308336 -0.0233982 0 -0.229875 -0.0255931 0 -0.142264 -0.0271857 0 -0.0491017 -0.0281095 0 0.0459928 -0.0283257 0 0.13939 -0.0278228 0 0.227457 -0.0266168 0 0.306563 -0.0247505 0 0.373082 -0.0222934 0 0.423383 -0.0193427 0 0.453821 -0.0160243 0 0.4607 -0.0124957 0 0.440228 -0.00894958 0 0.388446 -0.00561919 0 0.301117 -0.00278441 0 0.17352 -0.000778964 0 0 0 0 0 0 0 -0.169346 -0.00197012 0 -0.294235 -0.00719157 0 -0.380046 -0.0147868 0 -0.431275 -0.0239649 0 -0.451973 -0.0340098 0 -0.445926 -0.0442784 0 -0.416773 -0.0542013 0 -0.368068 -0.0632842 0 -0.303331 -0.0711105 0 -0.226075 -0.077342 0 -0.139823 -0.0817214 0 -0.0481191 -0.0840726 0 0.0454758 -0.0843011 0 0.13739 -0.0823945 0 0.224046 -0.0784219 0 0.301871 -0.0725336 0 0.367295 -0.0649614 0 0.416746 -0.0560187 0 0.446637 -0.0461023 0 0.453338 -0.035695 0 0.433125 -0.0253708 0 0.382115 -0.0158009 0 0.296158 -0.00776293 0 0.170632 -0.00215189 0 0 0 0 0 0 0 -0.164102 -0.00331062 0 -0.285075 -0.0120517 0 -0.368152 -0.024724 0 -0.417712 -0.0399883 0 -0.437691 -0.0566434 0 -0.431772 -0.07362 0 -0.403484 -0.0899784 0 -0.356275 -0.104908 0 -0.293553 -0.117729 0 -0.218721 -0.127892 0 -0.135191 -0.134981 0 -0.0463923 -0.138714 0 0.044227 -0.138942 0 0.133209 -0.135653 0 0.217089 -0.128969 0 0.292408 -0.119144 0 0.355708 -0.106571 0 0.403533 -0.0917747 0 0.432412 -0.0754163 0 0.438833 -0.0582973 0 0.419202 -0.0413633 0 0.369773 -0.0257127 0 0.286544 -0.0126073 0 0.165065 -0.00348719 0 0 0 0 0 0 0 -0.156253 -0.00460208 0 -0.271395 -0.0167318 0 -0.35043 -0.0342892 0 -0.397543 -0.0554058 0 -0.416497 -0.0784131 0 -0.410806 -0.101832 0 -0.383837 -0.124368 0 -0.338873 -0.144906 0 -0.279161 -0.162515 0 -0.207937 -0.176444 0 -0.128449 -0.186124 0 -0.0439574 -0.191171 0 0.0422571 -0.191388 0 0.126904 -0.186761 0 0.206689 -0.177463 0 0.278318 -0.163852 0 0.338501 -0.146471 0 0.383952 -0.126052 0 0.41137 -0.103509 0 0.417419 -0.0799504 0 0.398687 -0.0566786 0 0.351622 -0.035201 0 0.272435 -0.0172427 0 0.156911 -0.00476427 0 0 0 0 0 0 0 -0.145918 -0.00582349 0 -0.253405 -0.0211562 0 -0.327152 -0.0433279 0 -0.371082 -0.069969 0 -0.38872 -0.0989696 0 -0.383358 -0.128464 0 -0.358142 -0.156821 0 -0.316142 -0.182642 0 -0.260388 -0.204758 0 -0.193901 -0.222227 0 -0.11971 -0.23434 0 -0.0408602 -0.240617 0 0.03959 -0.240813 0 0.118569 -0.234914 0 0.193003 -0.223144 0 0.259817 -0.205955 0 0.315942 -0.184039 0 0.35831 -0.158316 0 0.383844 -0.129944 0 0.389436 -0.100319 0 0.371907 -0.0710804 0 0.327956 -0.04412 0 0.25406 -0.0215982 0 0.146305 -0.00596369 0 0 0 0 0 0 0 -0.133257 -0.00695476 0 -0.231384 -0.0252523 0 -0.29868 -0.0516928 0 -0.338741 -0.083442 0 -0.354797 -0.117981 0 -0.349859 -0.153086 0 -0.326806 -0.186817 0 -0.288441 -0.217513 0 -0.237533 -0.243784 0 -0.176837 -0.264516 0 -0.109118 -0.278867 0 -0.0371548 -0.28627 0 0.0362623 -0.286438 0 0.10833 -0.279357 0 0.176243 -0.265296 0 0.237194 -0.244798 0 0.288383 -0.218688 0 0.32701 -0.188066 0 0.35027 -0.154313 0 0.355328 -0.119091 0 0.339291 -0.0843482 0 0.299154 -0.0523337 0 0.231715 -0.0256077 0 0.133418 -0.00706737 0 0 0 0 0 0 0 -0.118465 -0.0079771 0 -0.205674 -0.0289525 0 -0.265459 -0.0592468 0 -0.301028 -0.0956051 0 -0.315261 -0.135139 0 -0.310838 -0.175301 0 -0.290324 -0.213875 0 -0.256211 -0.24896 0 -0.210958 -0.278972 0 -0.157017 -0.302638 0 -0.0968431 -0.318999 0 -0.0329028 -0.32741 0 0.0323233 -0.327545 0 0.0963453 -0.319392 0 0.15667 -0.30326 0 0.210803 -0.279775 0 0.256257 -0.249882 0 0.290546 -0.214844 0 0.311176 -0.176241 0 0.315634 -0.135977 0 0.301354 -0.0962802 0 0.265673 -0.059718 0 0.205756 -0.0292111 0 0.118456 -0.00805888 0 0 0 0 0 0 0 -0.101777 -0.00887339 0 -0.176681 -0.0321955 0 -0.228013 -0.0658653 0 -0.258538 -0.106259 0 -0.270734 -0.150163 0 -0.26691 -0.19475 0 -0.249271 -0.237558 0 -0.219958 -0.27648 0 -0.181084 -0.309759 0 -0.134755 -0.335986 0 -0.0830783 -0.354099 0 -0.0281718 -0.363386 0 0.0278345 -0.363487 0 0.0828029 -0.354391 0 0.134592 -0.336443 0 0.181061 -0.310342 0 0.220072 -0.277138 0 0.249492 -0.238236 0 0.267181 -0.195393 0 0.270982 -0.150721 0 0.258696 -0.106696 0 0.228041 -0.066162 0 0.176592 -0.0323546 0 0.101654 -0.00892356 0 0 0 0 0 0 0 -0.0834571 -0.00962852 0 -0.144864 -0.0349269 0 -0.186935 -0.0714382 0 -0.211942 -0.115227 0 -0.221921 -0.162808 0 -0.218769 -0.211116 0 -0.204294 -0.257482 0 -0.180254 -0.299628 0 -0.148381 -0.335651 0 -0.1104 -0.364028 0 -0.0680394 -0.383611 0 -0.0230347 -0.393631 0 0.0228686 -0.393698 0 0.0679184 -0.383805 0 0.110359 -0.364327 0 0.148437 -0.336024 0 0.180399 -0.300035 0 0.204496 -0.257883 0 0.218977 -0.211475 0 0.222073 -0.1631 0 0.211987 -0.115438 0 0.18685 -0.0715696 0 0.144681 -0.0349918 0 0.0832767 -0.00964875 0 0 0 0 0 0 0 -0.0637964 -0.0102296 0 -0.110729 -0.0371008 0 -0.142876 -0.0758727 0 -0.161977 -0.122362 0 -0.169592 -0.172866 0 -0.167173 -0.224131 0 -0.156101 -0.273325 0 -0.137722 -0.318031 0 -0.11336 -0.356234 0 -0.0843323 -0.386317 0 -0.0519595 -0.407065 0 -0.0175681 -0.417665 0 0.0175082 -0.417703 0 0.0519307 -0.407174 0 0.0843578 -0.386479 0 0.113449 -0.356423 0 0.137865 -0.318219 0 0.156269 -0.273484 0 0.167323 -0.224244 0 0.169678 -0.172927 0 0.16196 -0.122377 0 0.142746 -0.0758605 0 0.110522 -0.037084 0 0.0636104 -0.0102239 0 0 0 0 0 0 0 -0.04311 -0.0106665 0 -0.0748201 -0.0386805 0 -0.0965369 -0.0790944 0 -0.109438 -0.127545 0 -0.114577 -0.180172 0 -0.112937 -0.233582 0 -0.105452 -0.284829 0 -0.093032 -0.331393 0 -0.0765702 -0.371176 0 -0.0569577 -0.402497 0 -0.0350862 -0.42409 0 -0.0118519 -0.435108 0 0.0118443 -0.435124 0 0.0350979 -0.424133 0 0.0570026 -0.402552 0 0.0766525 -0.371223 0 0.0931433 -0.331411 0 0.105572 -0.284801 0 0.113035 -0.233504 0 0.11462 -0.180053 0 0.109401 -0.127408 0 0.0964171 -0.0789712 0 0.0746475 -0.0386005 0 0.0429608 -0.0106408 0 0 0 0 0 0 0 -0.0217299 -0.0109317 0 -0.0377124 -0.0396391 0 -0.0486569 -0.0810494 0 -0.0551575 -0.13069 0 -0.0577462 -0.184604 0 -0.0569179 -0.239316 0 -0.0531443 -0.291808 0 -0.0468834 -0.339498 0 -0.038586 -0.380239 0 -0.028701 -0.41231 0 -0.0176778 -0.434414 0 -0.00596805 -0.445686 0 0.00597424 -0.445688 0 0.0176932 -0.434415 0 0.0287321 -0.412297 0 0.0386343 -0.380196 0 0.0469442 -0.339408 0 0.0532065 -0.291661 0 0.0569659 -0.239118 0 0.0577633 -0.184371 0 0.0551315 -0.130457 0 0.0485868 -0.0808561 0 0.0376154 -0.0395193 0 0.0216475 -0.0108933 0 0 0 0 0 0 0 6.94208e-15 -0.0110206 0 1.21106e-14 -0.0399604 0 1.42572e-14 -0.0817047 0 1.79948e-14 -0.131744 0 2.52501e-14 -0.186089 0 3.26774e-14 -0.241238 0 2.76674e-14 -0.294146 0 2.50852e-14 -0.342214 0 1.47415e-14 -0.383276 0 4.17499e-15 -0.415598 0 3.4416e-15 -0.437874 0 1.10777e-14 -0.449231 0 2.41858e-15 -0.449228 0 9.65518e-15 -0.437861 0 1.06134e-14 -0.415562 0 9.04992e-15 -0.383202 0 1.89987e-14 -0.342087 0 2.24163e-14 -0.293959 0 1.80451e-14 -0.240998 0 2.78733e-14 -0.185818 0 3.43787e-14 -0.131478 0 3.25987e-14 -0.0814875 0 2.32495e-14 -0.0398271 0 1.21053e-14 -0.0109779 0 0 0 0 0 0 0 0.0217299 -0.0109317 0 0.0377124 -0.0396391 0 0.0486569 -0.0810494 0 0.0551575 -0.13069 0 0.0577462 -0.184604 0 0.0569179 -0.239316 0 0.0531443 -0.291808 0 0.0468834 -0.339498 0 0.038586 -0.380239 0 0.028701 -0.41231 0 0.0176778 -0.434414 0 0.00596805 -0.445686 0 -0.00597424 -0.445688 0 -0.0176932 -0.434415 0 -0.0287321 -0.412297 0 -0.0386343 -0.380196 0 -0.0469442 -0.339408 0 -0.0532065 -0.291661 0 -0.0569659 -0.239118 0 -0.0577633 -0.184371 0 -0.0551315 -0.130457 0 -0.0485868 -0.0808561 0 -0.0376154 -0.0395193 0 -0.0216475 -0.0108933 0 0 0 0 0 0 0 0.04311 -0.0106665 0 0.0748201 -0.0386805 0 0.0965369 -0.0790944 0 0.109438 -0.127545 0 0.114577 -0.180172 0 0.112937 -0.233582 0 0.105452 -0.284829 0 0.093032 -0.331393 0 0.0765702 -0.371176 0 0.0569577 -0.402497 0 0.0350862 -0.42409 0 0.0118519 -0.435108 0 -0.0118443 -0.435124 0 -0.0350979 -0.424133 0 -0.0570026 -0.402552 0 -0.0766525 -0.371223 0 -0.0931433 -0.331411 0 -0.105572 -0.284801 0 -0.113035 -0.233504 0 -0.11462 -0.180053 0 -0.109401 -0.127408 0 -0.0964171 -0.0789712 0 -0.0746475 -0.0386005 0 -0.0429608 -0.0106408 0 0 0 0 0 0 0 0.0637964 -0.0102296 0 0.110729 -0.0371008 0 0.142876 -0.0758727 0 0.161977 -0.122362 0 0.169592 -0.172866 0 0.167173 -0.224131 0 0.156101 -0.273325 0 0.137722 -0.318031 0 0.11336 -0.356234 0 0.0843323 -0.386317 0 0.0519595 -0.407065 0 0.0175681 -0.417665 0 -0.0175082 -0.417703 0 -0.0519307 -0.407174 0 -0.0843578 -0.386479 0 -0.113449 -0.356423 0 -0.137865 -0.318219 0 -0.156269 -0.273484 0 -0.167323 -0.224244 0 -0.169678 -0.172927 0 -0.16196 -0.122377 0 -0.142746 -0.0758605 0 -0.110522 -0.037084 0 -0.0636104 -0.0102239 0 0 0 0 0 0 0 0.0834571 -0.00962852 0 0.144864 -0.0349269 0 0.186935 -0.0714382 0 0.211942 -0.115227 0 0.221921 -0.162808 0 0.218769 -0.211116 0 0.204294 -0.257482 0 0.180254 -0.299628 0 0.148381 -0.335651 0 0.1104 -0.364028 0 0.0680394 -0.383611 0 0.0230347 -0.393631 0 -0.0228686 -0.393698 0 -0.0679184 -0.383805 0 -0.110359 -0.364327 0 -0.148437 -0.336024 0 -0.180399 -0.300035 0 -0.204496 -0.257883 0 -0.218977 -0.211475 0 -0.222073 -0.1631 0 -0.211987 -0.115438 0 -0.18685 -0.0715696 0 -0.144681 -0.0349918 0 -0.0832767 -0.00964875 0 0 0 0 0 0 0 0.101777 -0.00887339 0 0.176681 -0.0321955 0 0.228013 -0.0658653 0 0.258538 -0.106259 0 0.270734 -0.150163 0 0.26691 -0.19475 0 0.249271 -0.237558 0 0.219958 -0.27648 0 0.181084 -0.309759 0 0.134755 -0.335986 0 0.0830783 -0.354099 0 0.0281718 -0.363386 0 -0.0278345 -0.363487 0 -0.0828029 -0.354391 0 -0.134592 -0.336443 0 -0.181061 -0.310342 0 -0.220072 -0.277138 0 -0.249492 -0.238236 0 -0.267181 -0.195393 0 -0.270982 -0.150721 0 -0.258696 -0.106696 0 -0.228041 -0.066162 0 -0.176592 -0.0323546 0 -0.101654 -0.00892356 0 0 0 0 0 0 0 0.118465 -0.0079771 0 0.205674 -0.0289525 0 0.265459 -0.0592468 0 0.301028 -0.0956051 0 0.315261 -0.135139 0 0.310838 -0.175301 0 0.290324 -0.213875 0 0.256211 -0.24896 0 0.210958 -0.278972 0 0.157017 -0.302638 0 0.0968431 -0.318999 0 0.0329028 -0.32741 0 -0.0323233 -0.327545 0 -0.0963453 -0.319392 0 -0.15667 -0.30326 0 -0.210803 -0.279775 0 -0.256257 -0.249882 0 -0.290546 -0.214844 0 -0.311176 -0.176241 0 -0.315634 -0.135977 0 -0.301354 -0.0962802 0 -0.265673 -0.059718 0 -0.205756 -0.0292111 0 -0.118456 -0.00805888 0 0 0 0 0 0 0 0.133257 -0.00695476 0 0.231384 -0.0252523 0 0.29868 -0.0516928 0 0.338741 -0.083442 0 0.354797 -0.117981 0 0.349859 -0.153086 0 0.326806 -0.186817 0 0.288441 -0.217513 0 0.237533 -0.243784 0 0.176837 -0.264516 0 0.109118 -0.278867 0 0.0371548 -0.28627 0 -0.0362623 -0.286438 0 -0.10833 -0.279357 0 -0.176243 -0.265296 0 -0.237194 -0.244798 0 -0.288383 -0.218688 0 -0.32701 -0.188066 0 -0.35027 -0.154313 0 -0.355328 -0.119091 0 -0.339291 -0.0843482 0 -0.299154 -0.0523337 0 -0.231715 -0.0256077 0 -0.133418 -0.00706737 0 0 0 0 0 0 0 0.145918 -0.00582349 0 0.253405 -0.0211562 0 0.327152 -0.0433279 0 0.371082 -0.069969 0 0.38872 -0.0989696 0 0.383358 -0.128464 0 0.358142 -0.156821 0 0.316142 -0.182642 0 0.260388 -0.204758 0 0.193901 -0.222227 0 0.11971 -0.23434 0 0.0408602 -0.240617 0 -0.03959 -0.240813 0 -0.118569 -0.234914 0 -0.193003 -0.223144 0 -0.259817 -0.205955 0 -0.315942 -0.184039 0 -0.35831 -0.158316 0 -0.383844 -0.129944 0 -0.389436 -0.100319 0 -0.371907 -0.0710804 0 -0.327956 -0.04412 0 -0.25406 -0.0215982 0 -0.146305 -0.00596369 0 0 0 0 0 0 0 0.156253 -0.00460208 0 0.271395 -0.0167318 0 0.35043 -0.0342892 0 0.397543 -0.0554058 0 0.416497 -0.0784131 0 0.410806 -0.101832 0 0.383837 -0.124368 0 0.338873 -0.144906 0 0.279161 -0.162515 0 0.207937 -0.176444 0 0.128449 -0.186124 0 0.0439574 -0.191171 0 -0.0422571 -0.191388 0 -0.126904 -0.186761 0 -0.206689 -0.177463 0 -0.278318 -0.163852 0 -0.338501 -0.146471 0 -0.383952 -0.126052 0 -0.41137 -0.103509 0 -0.417419 -0.0799504 0 -0.398687 -0.0566786 0 -0.351622 -0.035201 0 -0.272435 -0.0172427 0 -0.156911 -0.00476427 0 0 0 0 0 0 0 0.164102 -0.00331062 0 0.285075 -0.0120517 0 0.368152 -0.024724 0 0.417712 -0.0399883 0 0.437691 -0.0566434 0 0.431772 -0.07362 0 0.403484 -0.0899784 0 0.356275 -0.104908 0 0.293553 -0.117729 0 0.218721 -0.127892 0 0.135191 -0.134981 0 0.0463923 -0.138714 0 -0.044227 -0.138942 0 -0.133209 -0.135653 0 -0.217089 -0.128969 0 -0.292408 -0.119144 0 -0.355708 -0.106571 0 -0.403533 -0.0917747 0 -0.432412 -0.0754163 0 -0.438833 -0.0582973 0 -0.419202 -0.0413633 0 -0.369773 -0.0257127 0 -0.286544 -0.0126073 0 -0.165065 -0.00348719 0 0 0 0 0 0 0 0.169346 -0.00197012 0 0.294235 -0.00719157 0 0.380046 -0.0147868 0 0.431275 -0.0239649 0 0.451973 -0.0340098 0 0.445926 -0.0442784 0 0.416773 -0.0542013 0 0.368068 -0.0632842 0 0.303331 -0.0711105 0 0.226075 -0.077342 0 0.139823 -0.0817214 0 0.0481191 -0.0840726 0 -0.0454758 -0.0843011 0 -0.13739 -0.0823945 0 -0.224046 -0.0784219 0 -0.301871 -0.0725336 0 -0.367295 -0.0649614 0 -0.416746 -0.0560187 0 -0.446637 -0.0461023 0 -0.453338 -0.035695 0 -0.433125 -0.0253708 0 -0.382115 -0.0158009 0 -0.296158 -0.00776293 0 -0.170632 -0.00215189 0 0 0 0 0 0 0 0.17191 -0.000602173 0 0.298741 -0.00222954 0 0.3859