<?xml version="1.0"?>

<VTKFile type="UnstructuredGrid" >
  <UnstructuredGrid>
    <Piece NumberOfPoints="12"  NumberOfCells="2" >
      <Cells><DataArray Name="connectivity" type="Int32" format="ascii" >
 0 4 6 2 1 5 7 3 4 8 10 6 5 9 11 7
</DataArray>
<DataArray Name="offsets" type="Int32" format="ascii" >
 8 16
</DataArray>
<DataArray Name="types" type="Int32" format="ascii" >
 12 12
</DataArray>

      </Cells>
      <Points><DataArray NumberOfComponents="3" type="Float32" format="ascii" >
 0 0 0 0 0 1 0 1 0 0 1 1 0.5 0 0 0.5 0 1 0.5 1 0 0.5 1 1 1 0 0 1 0 1 1 1 0 1 1 1
</DataArray>

      </Points>
      <PointData Vectors="UU" ><DataArray Name="UU" NumberOfComponents="3" type="Float32" format="ascii" >
 0 0 0 0 0 2.3 0 -6.4 0 0 -6.4 2.3 2 0 0 2 0 2.3 2 -6.4 0 2 -6.4 2.3 4 0 0 4 0 2.3 4 -6.4 0 4 -6.4 2.3
</DataArray>
<DataArray Name="SS" NumberOfComponents="3" type="Float32" format="ascii" >
 4 -6.4 2.3 4 -6.4 2.3 4 -6.4 2.3 4 -6.4 2.3 4 -6.4 2.3 4 -6.4 2.3 4 -6.4 2.3 4 -6.4 2.3 4 -6.4 2.3 4 -6.4 2.3 4 -6.4 2.3 4 -6.4 2.3
</DataArray>

      </PointData>
      <CellData>
      </CellData>
    </Piece>
  </UnstructuredGrid>
</VTKFile>