<?xml version="1.0"?>

<VTKFile type="UnstructuredGrid" >
  <UnstructuredGrid>
    <Piece NumberOfPoints="2601"  NumberOfCells="2500" >
      <Cells><DataArray Name="connectivity" type="Int32" format="ascii" >
 0 51 52 1 1 52 53 2 2 53 54 3 3 54 55 4 4 55 56 5 5 56 57 6 6 57 58 7 7 58 59 8 8 59 60 9 9 60 61 10 10 61 62 11 11 62 63 12 12 63 64 13 13 64 65 14 14 65 66 15 15 66 67 16 16 67 68 17 17 68 69 18 18 69 70 19 19 70 71 20 20 71 72 21 21 72 73 22 22 73 74 23 23 74 75 24 24 75 76 25 25 76 77 26 26 77 78 27 27 78 79 28 28 79 80 29 29 80 81 30 30 81 82 31 31 82 83 32 32 83 84 33 33 84 85 34 34 85 86 35 35 86 87 36 36 87 88 37 37 88 89 38 38 89 90 39 39 90 91 40 40 91 92 41 41 92 93 42 42 93 94 43 43 94 95 44 44 95 96 45 45 96 97 46 46 97 98 47 47 98 99 48 48 99 100 49 49 100 101 50 51 102 103 52 52 103 104 53 53 104 105 54 54 105 106 55 55 106 107 56 56 107 108 57 57 108 109 58 58 109 110 59 59 110 111 60 60 111 112 61 61 112 113 62 62 113 114 63 63 114 115 64 64 115 116 65 65 116 117 66 66 117 118 67 67 118 119 68 68 119 120 69 69 120 121 70 70 121 122 71 71 122 123 72 72 123 124 73 73 124 125 74 74 125 126 75 75 126 127 76 76 127 128 77 77 128 129 78 78 129 130 79 79 130 131 80 80 131 132 81 81 132 133 82 82 133 134 83 83 134 135 84 84 135 136 85 85 136 137 86 86 137 138 87 87 138 139 88 88 139 140 89 89 140 141 90 90 141 142 91 91 142 143 92 92 143 144 93 93 144 145 94 94 145 146 95 95 146 147 96 96 147 148 97 97 148 149 98 98 149 150 99 99 150 151 100 100 151 152 101 102 153 154 103 103 154 155 104 104 155 156 105 105 156 157 106 106 157 158 107 107 158 159 108 108 159 160 109 109 160 161 110 110 161 162 111 111 162 163 112 112 163 164 113 113 164 165 114 114 165 166 115 115 166 167 116 116 167 168 117 117 168 169 118 118 169 170 119 119 170 171 120 120 171 172 121 121 172 173 122 122 173 174 123 123 174 175 124 124 175 176 125 125 176 177 126 126 177 178 127 127 178 179 128 128 179 180 129 129 180 181 130 130 181 182 131 131 182 183 132 132 183 184 133 133 184 185 134 134 185 186 135 135 186 187 136 136 187 188 137 137 188 189 138 138 189 190 139 139 190 191 140 140 191 192 141 141 192 193 142 142 193 194 143 143 194 195 144 144 195 196 145 145 196 197 146 146 197 198 147 147 198 199 148 148 199 200 149 149 200 201 150 150 201 202 151 151 202 203 152 153 204 205 154 154 205 206 155 155 206 207 156 156 207 208 157 157 208 209 158 158 209 210 159 159 210 211 160 160 211 212 161 161 212 213 162 162 213 214 163 163 214 215 164 164 215 216 165 165 216 217 166 166 217 218 167 167 218 219 168 168 219 220 169 169 220 221 170 170 221 222 171 171 222 223 172 172 223 224 173 173 224 225 174 174 225 226 175 175 226 227 176 176 227 228 177 177 228 229 178 178 229 230 179 179 230 231 180 180 231 232 181 181 232 233 182 182 233 234 183 183 234 235 184 184 235 236 185 185 236 237 186 186 237 238 187 187 238 239 188 188 239 240 189 189 240 241 190 190 241 242 191 191 242 243 192 192 243 244 193 193 244 245 194 194 245 246 195 195 246 247 196 196 247 248 197 197 248 249 198 198 249 250 199 199 250 251 200 200 251 252 201 201 252 253 202 202 253 254 203 204 255 256 205 205 256 257 206 206 257 258 207 207 258 259 208 208 259 260 209 209 260 261 210 210 261 262 211 211 262 263 212 212 263 264 213 213 264 265 214 214 265 266 215 215 266 267 216 216 267 268 217 217 268 269 218 218 269 270 219 219 270 271 220 220 271 272 221 221 272 273 222 222 273 274 223 223 274 275 224 224 275 276 225 225 276 277 226 226 277 278 227 227 278 279 228 228 279 280 229 229 280 281 230 230 281 282 231 231 282 283 232 232 283 284 233 233 284 285 234 234 285 286 235 235 286 287 236 236 287 288 237 237 288 289 238 238 289 290 239 239 290 291 240 240 291 292 241 241 292 293 242 242 293 294 243 243 294 295 244 244 295 296 245 245 296 297 246 246 297 298 247 247 298 299 248 248 299 300 249 249 300 301 250 250 301 302 251 251 302 303 252 252 303 304 253 253 304 305 254 255 306 307 256 256 307 308 257 257 308 309 258 258 309 310 259 259 310 311 260 260 311 312 261 261 312 313 262 262 313 314 263 263 314 315 264 264 315 316 265 265 316 317 266 266 317 318 267 267 318 319 268 268 319 320 269 269 320 321 270 270 321 322 271 271 322 323 272 272 323 324 273 273 324 325 274 274 325 326 275 275 326 327 276 276 327 328 277 277 328 329 278 278 329 330 279 279 330 331 280 280 331 332 281 281 332 333 282 282 333 334 283 283 334 335 284 284 335 336 285 285 336 337 286 286 337 338 287 287 338 339 288 288 339 340 289 289 340 341 290 290 341 342 291 291 342 343 292 292 343 344 293 293 344 345 294 294 345 346 295 295 346 347 296 296 347 348 297 297 348 349 298 298 349 350 299 299 350 351 300 300 351 352 301 301 352 353 302 302 353 354 303 303 354 355 304 304 355 356 305 306 357 358 307 307 358 359 308 308 359 360 309 309 360 361 310 310 361 362 311 311 362 363 312 312 363 364 313 313 364 365 314 314 365 366 315 315 366 367 316 316 367 368 317 317 368 369 318 318 369 370 319 319 370 371 320 320 371 372 321 321 372 373 322 322 373 374 323 323 374 375 324 324 375 376 325 325 376 377 326 326 377 378 327 327 378 379 328 328 379 380 329 329 380 381 330 330 381 382 331 331 382 383 332 332 383 384 333 333 384 385 334 334 385 386 335 335 386 387 336 336 387 388 337 337 388 389 338 338 389 390 339 339 390 391 340 340 391 392 341 341 392 393 342 342 393 394 343 343 394 395 344 344 395 396 345 345 396 397 346 346 397 398 347 347 398 399 348 348 399 400 349 349 400 401 350 350 401 402 351 351 402 403 352 352 403 404 353 353 404 405 354 354 405 406 355 355 406 407 356 357 408 409 358 358 409 410 359 359 410 411 360 360 411 412 361 361 412 413 362 362 413 414 363 363 414 415 364 364 415 416 365 365 416 417 366 366 417 418 367 367 418 419 368 368 419 420 369 369 420 421 370 370 421 422 371 371 422 423 372 372 423 424 373 373 424 425 374 374 425 426 375 375 426 427 376 376 427 428 377 377 428 429 378 378 429 430 379 379 430 431 380 380 431 432 381 381 432 433 382 382 433 434 383 383 434 435 384 384 435 436 385 385 436 437 386 386 437 438 387 387 438 439 388 388 439 440 389 389 440 441 390 390 441 442 391 391 442 443 392 392 443 444 393 393 444 445 394 394 445 446 395 395 446 447 396 396 447 448 397 397 448 449 398 398 449 450 399 399 450 451 400 400 451 452 401 401 452 453 402 402 453 454 403 403 454 455 404 404 455 456 405 405 456 457 406 406 457 458 407 408 459 460 409 409 460 461 410 410 461 462 411 411 462 463 412 412 463 464 413 413 464 465 414 414 465 466 415 415 466 467 416 416 467 468 417 417 468 469 418 418 469 470 419 419 470 471 420 420 471 472 421 421 472 473 422 422 473 474 423 423 474 475 424 424 475 476 425 425 476 477 426 426 477 478 427 427 478 479 428 428 479 480 429 429 480 481 430 430 481 482 431 431 482 483 432 432 483 484 433 433 484 485 434 434 485 486 435 435 486 487 436 436 487 488 437 437 488 489 438 438 489 490 439 439 490 491 440 440 491 492 441 441 492 493 442 442 493 494 443 443 494 495 444 444 495 496 445 445 496 497 446 446 497 498 447 447 498 499 448 448 499 500 449 449 500 501 450 450 501 502 451 451 502 503 452 452 503 504 453 453 504 505 454 454 505 506 455 455 506 507 456 456 507 508 457 457 508 509 458 459 510 511 460 460 511 512 461 461 512 513 462 462 513 514 463 463 514 515 464 464 515 516 465 465 516 517 466 466 517 518 467 467 518 519 468 468 519 520 469 469 520 521 470 470 521 522 471 471 522 523 472 472 523 524 473 473 524 525 474 474 525 526 475 475 526 527 476 476 527 528 477 477 528 529 478 478 529 530 479 479 530 531 480 480 531 532 481 481 532 533 482 482 533 534 483 483 534 535 484 484 535 536 485 485 536 537 486 486 537 538 487 487 538 539 488 488 539 540 489 489 540 541 490 490 541 542 491 491 542 543 492 492 543 544 493 493 544 545 494 494 545 546 495 495 546 547 496 496 547 548 497 497 548 549 498 498 549 550 499 499 550 551 500 500 551 552 501 501 552 553 502 502 553 554 503 503 554 555 504 504 555 556 505 505 556 557 506 506 557 558 507 507 558 559 508 508 559 560 509 510 561 562 511 511 562 563 512 512 563 564 513 513 564 565 514 514 565 566 515 515 566 567 516 516 567 568 517 517 568 569 518 518 569 570 519 519 570 571 520 520 571 572 521 521 572 573 522 522 573 574 523 523 574 575 524 524 575 576 525 525 576 577 526 526 577 578 527 527 578 579 528 528 579 580 529 529 580 581 530 530 581 582 531 531 582 583 532 532 583 584 533 533 584 585 534 534 585 586 535 535 586 587 536 536 587 588 537 537 588 589 538 538 589 590 539 539 590 591 540 540 591 592 541 541 592 593 542 542 593 594 543 543 594 595 544 544 595 596 545 545 596 597 546 546 597 598 547 547 598 599 548 548 599 600 549 549 600 601 550 550 601 602 551 551 602 603 552 552 603 604 553 553 604 605 554 554 605 606 555 555 606 607 556 556 607 608 557 557 608 609 558 558 609 610 559 559 610 611 560 561 612 613 562 562 613 614 563 563 614 615 564 564 615 616 565 565 616 617 566 566 617 618 567 567 618 619 568 568 619 620 569 569 620 621 570 570 621 622 571 571 622 623 572 572 623 624 573 573 624 625 574 574 625 626 575 575 626 627 576 576 627 628 577 577 628 629 578 578 629 630 579 579 630 631 580 580 631 632 581 581 632 633 582 582 633 634 583 583 634 635 584 584 635 636 585 585 636 637 586 586 637 638 587 587 638 639 588 588 639 640 589 589 640 641 590 590 641 642 591 591 642 643 592 592 643 644 593 593 644 645 594 594 645 646 595 595 646 647 596 596 647 648 597 597 648 649 598 598 649 650 599 599 650 651 600 600 651 652 601 601 652 653 602 602 653 654 603 603 654 655 604 604 655 656 605 605 656 657 606 606 657 658 607 607 658 659 608 608 659 660 609 609 660 661 610 610 661 662 611 612 663 664 613 613 664 665 614 614 665 666 615 615 666 667 616 616 667 668 617 617 668 669 618 618 669 670 619 619 670 671 620 620 671 672 621 621 672 673 622 622 673 674 623 623 674 675 624 624 675 676 625 625 676 677 626 626 677 678 627 627 678 679 628 628 679 680 629 629 680 681 630 630 681 682 631 631 682 683 632 632 683 684 633 633 684 685 634 634 685 686 635 635 686 687 636 636 687 688 637 637 688 689 638 638 689 690 639 639 690 691 640 640 691 692 641 641 692 693 642 642 693 694 643 643 69
[...]
      <CellData Scalars="C" ><DataArray Name="C" type="Float32" format="ascii" >
 9.72099e-21 3.85402e-19 1.10954e-17 2.31952e-16 3.52111e-15 3.88138e-14 3.10684e-13 1.80583e-12 7.62186e-12 2.33599e-11 5.19884e-11 8.40172e-11 9.85951e-11 8.40172e-11 5.19884e-11 2.33599e-11 7.62186e-12 1.80583e-12 3.10684e-13 3.88138e-14 3.52111e-15 2.31952e-16 1.10954e-17 3.85402e-19 9.72099e-21 1.78046e-22 2.36799e-24 2.28693e-26 1.60381e-28 8.1673e-31 3.02015e-33 8.10972e-36 1.58128e-38 2.23885e-41 2.24208e-44 0 0 0 0 0 0 0 0 0 0 0 0 0 0 0 3.85402e-19 1.52798e-17 4.39893e-16 9.19607e-15 1.39599e-13 1.53883e-12 1.23175e-11 7.15947e-11 3.02179e-10 9.26136e-10 2.06115e-09 3.33098e-09 3.90894e-09 3.33098e-09 2.06115e-09 9.26136e-10 3.02179e-10 7.15947e-11 1.23175e-11 1.53883e-12 1.39599e-13 9.19607e-15 4.39893e-16 1.52798e-17 3.85402e-19 7.05888e-21 9.38823e-23 9.06687e-25 6.35853e-27 3.23804e-29 1.19738e-31 3.21521e-34 6.2692e-37 8.87647e-40 9.12245e-43 0 0 0 0 0 0 0 0 0 0 0 0 0 0 0 1.10954e-17 4.39893e-16 1.26642e-14 2.64747e-13 4.01895e-12 4.43016e-11 3.54611e-10 2.06115e-09 8.6995e-09 2.66627e-08 5.93389e-08 9.58961e-08 1.12535e-07 9.58961e-08 5.93389e-08 2.66627e-08 8.6995e-09 2.06115e-09 3.54611e-10 4.43016e-11 4.01895e-12 2.64747e-13 1.26642e-14 4.39893e-16 1.10954e-17 2.0322e-19 2.7028e-21 2.61028e-23 1.83057e-25 9.32205e-28 3.44717e-30 9.25633e-33 1.80485e-35 2.55546e-38 2.62743e-41 1.96182e-44 0 0 0 0 0 0 0 0 0 0 0 0 0 0 2.31952e-16 9.19607e-15 2.64747e-13 5.53461e-12 8.40172e-11 9.26136e-10 7.41323e-09 4.30889e-08 1.81865e-07 5.5739e-07 1.2405e-06 2.00473e-06 2.35258e-06 2.00473e-06 1.2405e-06 5.5739e-07 1.81865e-07 4.30889e-08 7.41323e-09 9.26136e-10 8.40172e-11 5.53461e-12 2.64747e-13 9.19607e-15 2.31952e-16 4.24835e-18 5.65026e-20 5.45685e-22 3.82685e-24 1.9488e-26 7.20639e-29 1.93506e-31 3.77309e-34 5.34226e-37 5.49261e-40 4.1058e-43 0 0 0 0 0 0 0 0 0 0 0 0 0 0 3.52111e-15 1.39599e-13 4.01895e-12 8.40172e-11 1.27541e-09 1.4059e-08 1.12535e-07 6.54104e-07 2.76077e-06 8.46137e-06 1.88311e-05 3.04325e-05 3.57128e-05 3.04325e-05 1.88311e-05 8.46137e-06 2.76077e-06 6.54104e-07 1.12535e-07 1.4059e-08 1.27541e-09 8.40172e-11 4.01895e-12 1.39599e-13 3.52111e-15 6.44914e-17 8.57728e-19 8.28368e-21 5.80928e-23 2.95834e-25 1.09395e-27 2.93748e-30 5.72767e-33 8.10972e-36 8.33796e-39 6.22457e-42 2.8026e-45 0 0 0 0 0 0 0 0 0 0 0 0 0 3.88138e-14 1.53883e-12 4.43016e-11 9.26136e-10 1.4059e-08 1.54975e-07 1.2405e-06 7.2103e-06 3.04325e-05 9.32711e-05 0.000207579 0.000335463 0.000393669 0.000335463 0.000207579 9.32711e-05 3.04325e-05 7.2103e-06 1.2405e-06 1.54975e-07 1.4059e-08 9.26136e-10 4.43016e-11 1.53883e-12 3.88138e-14 7.109e-16 9.45489e-18 9.13124e-20 6.40367e-22 3.26103e-24 1.20588e-26 3.23804e-29 6.31371e-32 8.93949e-35 9.19108e-38 6.86188e-41 3.78351e-44 0 0 0 0 0 0 0 0 0 0 0 0 0 3.10684e-13 1.23175e-11 3.54611e-10 7.41323e-09 1.12535e-07 1.2405e-06 9.9295e-06 5.77146e-05 0.000243596 0.000746586 0.00166156 0.0026852 0.00315111 0.0026852 0.00166156 0.000746586 0.000243596 5.77146e-05 9.9295e-06 1.2405e-06 1.12535e-07 7.41323e-09 3.54611e-10 1.23175e-11 3.10684e-13 5.69038e-15 7.56813e-17 7.30908e-19 5.1258e-21 2.61028e-23 9.65246e-26 2.59188e-28 5.05379e-31 7.15558e-34 7.35697e-37 5.49261e-40 2.97075e-43 0 0 0 0 0 0 0 0 0 0 0 0 0 1.80583e-12 7.15947e-11 2.06115e-09 4.30889e-08 6.54104e-07 7.2103e-06 5.77146e-05 0.000335463 0.00141589 0.00433948 0.0096577 0.0156076 0.0183156 0.0156076 0.0096577 0.00433948 0.00141589 0.000335463 5.77146e-05 7.2103e-06 6.54104e-07 4.30889e-08 2.06115e-09 7.15947e-11 1.80583e-12 3.3075e-14 4.39893e-16 4.24835e-18 2.97934e-20 1.51721e-22 5.61043e-25 1.50651e-27 2.93748e-30 4.15914e-33 4.27619e-36 3.19255e-39 1.7306e-42 0 0 0 0 0 0 0 0 0 0 0 0 0 7.62186e-12 3.02179e-10 8.6995e-09 1.81865e-07 2.76077e-06 3.04325e-05 0.000243596 0.00141589 0.00597602 0.0183156 0.0407622 0.0658748 0.0773047 0.0658748 0.0407622 0.0183156 0.00597602 0.00141589 0.000243596 3.04325e-05 2.76077e-06 1.81865e-07 8.6995e-09 3.02179e-10 7.62186e-12 1.39599e-13 1.85665e-15 1.7931e-17 1.25749e-19 6.40367e-22 2.36799e-24 6.35853e-27 1.23982e-29 1.75545e-32 1.80485e-35 1.34748e-38 7.30497e-42 2.8026e-45 0 0 0 0 0 0 0 0 0 0 0 0 2.33599e-11 9.26136e-10 2.66627e-08 5.5739e-07 8.46137e-06 9.32711e-05 0.000746586 0.00433948 0.0183156 0.0561348 0.12493 0.201897 0.236928 0.201897 0.12493 0.0561348 0.0183156 0.00433948 0.000746586 9.32711e-05 8.46137e-06 5.5739e-07 2.66627e-08 9.26136e-10 2.33599e-11 4.27852e-13 5.69038e-15 5.49559e-17 3.85402e-19 1.96263e-21 7.25755e-24 1.9488e-26 3.79987e-29 5.38019e-32 5.53161e-35 4.12982e-38 2.23885e-41 8.40779e-45 0 0 0 0 0 0 0 0 0 0 0 0 5.19884e-11 2.06115e-09 5.93389e-08 1.2405e-06 1.88311e-05 0.000207579 0.00166156 0.0096577 0.0407622 0.12493 0.278037 0.449329 0.527292 0.449329 0.278037 0.12493 0.0407622 0.0096577 0.00166156 0.000207579 1.88311e-05 1.2405e-06 5.93389e-08 2.06115e-09 5.19884e-11 9.52201e-13 1.26642e-14 1.22307e-16 8.57728e-19 4.36792e-21 1.6152e-23 4.33713e-26 8.45677e-29 1.19738e-31 1.23108e-34 9.19108e-38 4.98274e-41 1.96182e-44 0 0 0 0 0 0 0 0 0 0 0 0 8.40172e-11 3.33098e-09 9.58961e-08 2.00473e-06 3.04325e-05 0.000335463 0.0026852 0.0156076 0.0658748 0.201897 0.449329 0.726149 0.852144 0.726149 0.449329 0.201897 0.0658748 0.0156076 0.0026852 0.000335463 3.04325e-05 2.00473e-06 9.58961e-08 3.33098e-09 8.40172e-11 1.53883e-12 2.04662e-14 1.97657e-16 1.38615e-18 7.05888e-21 2.61028e-23 7.00912e-26 1.36668e-28 1.93506e-31 1.98952e-34 1.48535e-37 8.05256e-41 3.22299e-44 0 0 0 0 0 0 0 0 0 0 0 0 9.85951e-11 3.90894e-09 1.12535e-07 2.35258e-06 3.57128e-05 0.000393669 0.00315111 0.0183156 0.0773047 0.236928 0.527292 0.852144 1 0.852144 0.527292 0.236928 0.0773047 0.0183156 0.00315111 0.000393669 3.57128e-05 2.35258e-06 1.12535e-07 3.90894e-09 9.85951e-11 1.80583e-12 2.40173e-14 2.31952e-16 1.62666e-18 8.28368e-21 3.06319e-23 8.22528e-26 1.60381e-28 2.27081e-31 2.33472e-34 1.74307e-37 9.4498e-41 3.78351e-44 0 0 0 0 0 0 0 0 0 0 0 0 8.40172e-11 3.33098e-09 9.58961e-08 2.00473e-06 3.04325e-05 0.000335463 0.0026852 0.0156076 0.0658748 0.201897 0.449329 0.726149 0.852144 0.726149 0.449329 0.201897 0.0658748 0.0156076 0.0026852 0.000335463 3.04325e-05 2.00473e-06 9.58961e-08 3.33098e-09 8.40172e-11 1.53883e-12 2.04662e-14 1.97657e-16 1.38615e-18 7.05888e-21 2.61028e-23 7.00912e-26 1.36668e-28 1.93506e-31 1.98952e-34 1.48535e-37 8.05256e-41 3.22299e-44 0 0 0 0 0 0 0 0 0 0 0 0 5.19884e-11 2.06115e-09 5.93389e-08 1.2405e-06 1.88311e-05 0.000207579 0.00166156 0.0096577 0.0407622 0.12493 0.278037 0.449329 0.527292 0.449329 0.278037 0.12493 0.0407622 0.0096577 0.00166156 0.000207579 1.88311e-05 1.2405e-06 5.93389e-08 2.06115e-09 5.19884e-11 9.52201e-13 1.26642e-14 1.22307e-16 8.57728e-19 4.36792e-21 1.6152e-23 4.33713e-26 8.45677e-29 1.19738e-31 1.23108e-34 9.19108e-38 4.98274e-41 1.96182e-44 0 0 0 0 0 0 0 0 0 0 0 0 2.33599e-11 9.26136e-10 2.66627e-08 5.5739e-07 8.46137e-06 9.32711e-05 0.000746586 0.00433948 0.0183156 0.0561348 0.12493 0.201897 0.236928 0.201897 0.12493 0.0561348 0.0183156 0.00433948 0.000746586 9.32711e-05 8.46137e-06 5.5739e-07 2.66627e-08 9.26136e-10 2.33599e-11 4.27852e-13 5.69038e-15 5.49559e-17 3.85402e-19 1.96263e-21 7.25755e-24 1.9488e-26 3.79987e-29 5.38019e-32 5.53161e-35 4.12982e-38 2.23885e-41 8.40779e-45 0 0 0 0 0 0 0 0 0 0 0 0 7.62186e-12 3.02179e-10 8.6995e-09 1.81865e-07 2.76077e-06 3.04325e-05 0.000243596 0.00141589 0.00597602 0.0183156 0.0407622 0.0658748 0.0773047 0.0658748 0.0407622 0.0183156 0.00597602 0.00141589 0.000243596 3.04325e-05 2.76077e-06 1.81865e-07 8.6995e-09 3.02179e-10 7.62186e-12 1.39599e-13 1.85665e-15 1.7931e-17 1.25749e-19 6.40367e-22 2.36799e-24 6.35853e-27 1.23982e-29 1.75545e-32 1.80485e-35 1.34748e-38 7.30497e-42 2.8026e-45 0 0 0 0 0 0 0 0 0 0 0 0 1.80583e-12 7.15947e-11 2.06115e-09 4.30889e-08 6.54104e-07 7.2103e-06 5.77146e-05 0.000335463 0.00141589 0.00433948 0.0096577 0.0156076 0.0183156 0.0156076 0.0096577 0.00433948 0.00141589 0.000335463 5.77146e-05 7.2103e-06 6.54104e-07 4.30889e-08 2.06115e-09 7.15947e-11 1.80583e-12 3.3075e-14 4.39893e-16 4.24835e-18 2.97934e-20 1.51721e-22 5.61043e-25 1.50651e-27 2.93748e-30 4.15914e-33 4.27619e-36 3.19255e-39 1.7306e-42 0 0 0 0 0 0 0 0 0 0 0 0 0 3.10684e-13 1.23175e-11 3.54611e-10 7.41323e-09 1.12535e-07 1.2405e-06 9.9295e-06 5.77146e-05 0.000243596 0.000746586 0.00166156 0.0026852 0.00315111 0.0026852 0.00166156 0.000746586 0.000243596 5.77146e-05 9.9295e-06 1.2405e-06 1.12535e-07 7.41323e-09 3.54611e-10 1.23175e-11 3.10684e-13 5.69038e-15 7.56813e-17 7.30908e-19 5.1258e-21 2.61028e-23 9.65246e-26 2.59188e-28 5.05379e-31 7.15558e-34 7.35697e-37 5.49261e-40 2.97075e-43 0 0 0 0 0 0 0 0 0 0 0 0 0 3.88138e-14 1.53883e-12 4.43016e-11 9.26136e-10 1.4059e-08 1.54975e-07 1.2405e-06 7.2103e-06 3.04325e-05 9.32711e-05 0.000207579 0.000335463 0.000393669 0.000335463 0.000207579 9.32711e-05 3.04325e-05 7.2103e-06 1.2405e-06 1.54975e-07 1.4059e-08 9.26136e-10 4.43016e-11 1.53883e-12 3.88138e-14 7.109e-16 9.45489e-18 9.13124e-20 6.40367e-22 3.26103e-24 1.20588e-26 3.23804e-29 6.31371e-32 8.93949e-35 9.19108e-38 6.86188e-41 3.78351e-44 0 0 0 0 0 0 0 0 0 0 0 0 0 3.52111e-15 1.39599e-13 4.01895e-12 8.40172e-11 1.27541e-09 1.4059e-08 1.12535e-07 6.54104e-07 2.76077e-06 8.46137e-06 1.88311e-05 3.04325e-05 3.57128e-05 3.04325e-05 1.88311e-05 8.46137e-06 2.76077e-06 6.54104e-07 1.12535e-07 1.4059e-08 1.27541e-09 8.40172e-11 4.01895e-12 1.39599e-13 3.52111e-15 6.44914e-17 8.57728e-19 8.28368e-21 5.80928e-23 2.95834e-25 1.09395e-27 2.93748e-30 5.72767e-33 8.10972e-36 8.33796e-39 6.22457e-42 2.8026e-45 0 0 0 0 0 0 0 0 0 0 0 0 0 2.31952e-16 9.19607e-15 2.64747e-13 5.53461e-12 8.40172e-11 9.26136e-10 7.41323e-09 4.30889e-08 1.81865e-07 5.5739e-07 1.2405e-06 2.00473e-06 2.35258e-06 2.00473e-06 1.2405e-06 5.5739e-07 1.81865e-07 4.30889e-08 7.41323e-09 9.26136e-10 8.40172e-11 5.53461e-12 2.64747e-13 9.19607e-15 2.31952e-16 4.24835e-18 5.65026e-20 5.45685e-22 3.82685e-24 1.9488e-26 7.20639e-29 1.93506e-31 3.77309e-34 5.34226e-37 5.49261e-40 4.1058e-43 0 0 0 0 0 0 0 0 0 0 0 0 0 0 1.10954e-17 4.39893e-16 1.26642e-14 2.64747e-13 4.01895e-12 4.43016e-11 3.54611e-10 2.06115e-09 8.6995e-09 2.66627e-08 5.93389e-08 9.58961e-08 1.12535e-07 9.58961e-08 5.93389e-08 2.66627e-08 8.6995e-09 2.06115e-09 3.54611e-10 4.43016e-11 4.01895e-12 2.64747e-13 1.26642e-14 4.39893e-16 1.10954e-17 2.0322e-19 2.7028e-21 2.61028e-23 1.83057e-25 9.32205e-28 3.44717e-30 9.25633e-33 1.80485e-35 2.55546e-38 2.62743e-41 1.96182e-44 0 0 0 0 0 0 0 0 0 0 0 0 0 0 3.85402e-19 1.52798e-17 4.39893e-16 9.19607e-15 1.39599e-13 1.53883e-12 1.23175e-11 7.15947e-11 3.02179e-10 9.26136e-10 2.06115e-09 3.33098e-09 3.90894e-09 3.33098e-09 2.06115e-09 9.26136e-10 3.02179e-10 7.15947e-11 1.23175e-11 1.53883e-12 1.39599e-13 9.19607e-15 4.39893e-16 1.52798e-17 3.85402e-19 7.05888e-21 9.38823e-23 9.06687e-25 6.35853e-27 3.23804e-29 1.19738e-31 3.21521e-34 6.2692e-37 8.87647e-40 9.12245e-43 0 0 0 0 0 0 0 0 0 0 0 0 0 0 0 9.72099e-21 3.85402e-19 1.10954e-17 2.31952e-16 3.52111e-15 3.88138e-14 3.10684e-13 1.80583e-12 7.62186e-12 2.33599e-11 5.19884e-11 8.40172e-11 9.85951e-11 8.40172e-11 5.19884e-11 2.33599e-11 7.62186e-12 1.80583e-12 3.10684e-13 3.88138e-14 3.52111e-15 2.31952e-16 1.10954e-17 3.85402e-19 9.72099e-21 1.78046e-22 2.36799e-24 2.28693e-26 1.60381e-28 8.1673e-31 3.02015e-33 8.10972e-36 1.58128e-38 2.23885e-41 2.24208e-44 0 0 0 0 0 0 0 0 0 0 0 0 0 0 0 1.78046e-22 7.05888e-21 2.0322e-19 4.24835e-18 6.44914e-17 7.109e-16 5.69038e-15 3.3075e-14 1.39599e-13 4.27852e-13 9.52201e-13 1.53883e-12 1.80583e-12 1.53883e-12 9.52201e-13 4.27852e-13 1.39599e-13 3.3075e-14 5.69038e-15 7.109e-16 6.44914e-17 4.24835e-18 2.0322e-19 7.05888e-21 1.78046e-22 3.26103e-24 4.33713e-26 4.18867e-28 2.93748e-30 1.49589e-32 5.53161e-35 1.48535e-37 2.89622e-40 4.1058e-43 0 0 0 0 0 0 0 0 0 0 0 0 0 0 0 0 2.36799e-24 9.38823e-23 2.7028e-21 5.65026e-20 8.57728e-19 9.45489e-18 7.56813e-17 4.39893e-16 1.85665e-15 5.69038e-15 1.26642e-14 2.04662e-14 2.40173e-14 2.04662e-14 1.26642e-14 5.69038e-15 1.85665e-15 4.39893e-16 7.56813e-17 9.45489e-18 8.57728e-19 5.65026e-20 2.7028e-21 9.38823e-23 2.36799e-24 4.33713e-26 5.76833e-28 5.57088e-30 3.90682e-32 1.98952e-34 7.35697e-37 1.97549e-39 3.85217e-42 5.60519e-45 0 0 0 0 0 0 0 0 0 0 0 0 0 0 0 0 2.28693e-26 9.06687e-25 2.61028e-23 5.45685e-22 8.28368e-21 9.13124e-20 7.30908e-19 4.24835e-18 1.7931e-17 5.49559e-17 1.22307e-16 1.97657e-16 2.31952e-16 1.97657e-16 1.22307e-16 5.49559e-17 1.7931e-17 4.24835e-18 7.30908e-19 9.13124e-20 8.28368e-21 5.45685e-22 2.61028e-23 9.06687e-25 2.28693e-26 4.18867e-28 5.57088e-30 5.38019e-32 3.77309e-34 1.92142e-36 7.10514e-39 1.90787e-41 3.78351e-44 0 0 0 0 0 0 0 0 0 0 0 0 0 0 0 0 0 1.60381e-28 6.35853e-27 1.83057e-25 3.82685e-24 5.80928e-23 6.40367e-22 5.1258e-21 2.97934e-20 1.25749e-19 3.85402e-19 8.57728e-19 1.38615e-18 1.62666e-18 1.38615e-18 8.57728e-19 3.85402e-19 1.25749e-19 2.97934e-20 5.1258e-21 6.40367e-22 5.80928e-23 3.82685e-24 1.83057e-25 6.35853e-27 1.60381e-28 2.93748e-30 3.90682e-32 3.77309e-34 2.64604e-36 1.34748e-38 4.98274e-41 1.33123e-43 0 0 0 0 0 0 0 0 0 0 0 0 0 0 0 0 0 0 8.1673e-31 3.23804e-29 9.32205e-28 1.9488e-26 2.95834e-25 3.26103e-24 2.61028e-23 1.51721e-22 6.40367e-22 1.96263e-21 4.36792e-21 7.05888e-21 8.28368e-21 7.05888e-21 4.36792e-21 1.96263e-21 6.40367e-22 1.51721e-22 2.61028e-23 3.26103e-24 2.95834e-25 1.9488e-26 9.32205e-28 3.23804e-29 8.1673e-31 1.49589e-32 1.98952e-34 1.92142e-36 1.34748e-38 6.86188e-41 2.53635e-43 0 0 0 0 0 0 0 0 0 0 0 0 0 0 0 0 0 0 0 3.02015e-33 1.19738e-31 3.44717e-30 7.20639e-29 1.09395e-27 1.20588e-26 9.65246e-26 5.61043e-25 2.36799e-24 7.25755e-24 1.6152e-23 2.61028e-23 3.06319e-23 2.61028e-23 1.6152e-23 7.25755e-24 2.36799e-24 5.61043e-25 9.65246e-26 1.20588e-26 1.09395e-27 7.20639e-29 3.44717e-30 1.19738e-31 3.02015e-33 5.53161e-35 7.35697e-37 7.10514e-39 4.98274e-41 2.53635e-43 1.4013e-45 0 0 0 0 0 0 0 0 0 0 0 0 0 0 0 0 0 0 0 8.10972e-36 3.21521e-34 9.25633e-33 1.93506e-31 2.93748e-30 3.23804e-29 2.59188e-28 1.50651e-27 6.35853e-27 1.9488e-26 4.33713e-26 7.00912e-26 8.22528e-26 7.00912e-26 4.33713e-26 1.9488e-26 6.35853e-27 1.50651e-27 2.59188e-28 3.23804e-29 2.93748e-30 1.93506e-31 9.25633e-33 3.21521e-34 8.10972e-36 1.48535e-37 1.97549e-39 1.90787e-41 1.33123e-43 0 0 0 0 0 0 0 0 0 0 0 0 0 0 0 0 0 0 0 0 0 1.58128e-38 6.2692e-37 1.80485e-35 3.77309e-34 5.72767e-33 6.31371e-32 5.05379e-31 2.93748e-30 1.23982e-29 3.79987e-29 8.45677e-29 1.36668e-28 1.60381e-28 1.36668e-28 8.45677e-29 3.79987e-29 1.23982e-29 2.93748e-30 5.05379e-31 6.31371e-32 5.72767e-33 3.77309e-34 1.80485e-35 6.2692e-37 1.58128e-38 2.89622e-40 3.85217e-42 3.78351e-44 0 0 0 0 0 0 0 0 0 0 0 0 0 0 0 0 0 0 0 0 0 0 2.23885e-41 8.87647e-40 2.55546e-38 5.34226e-37 8.10972e-36 8.93949e-35 7.15558e-34 4.15914e-33 1.75545e-32 5.38019e-32 1.19738e-31 1.93506e-31 2.27081e-31 1.93506e-31 1.19738e-31 5.38019e-32 1.75545e-32 4.15914e-33 7.15558e-34 8.93949e-35 8.10972e-36 5.34226e-37 2.55546e-38 8.87647e-40 2.23885e-41 4.1058e-43 5.60519e-45 0 0 0 0 0 0 0 0 0 0 0 0 0 0 0 0 0 0 0 0 0 0 0 2.24208e-44 9.12245e-43 2.62743e-41 5.49261e-40 8.33796e-39 9.19108e-38 7.35697e-37 4.27619e-36 1.80485e-35 5.53161e-35 1.23108e-34 1.98952e-34 2.33472e-34 1.98952e-34 1.23108e-34 5.53161e-35 1.80485e-35 4.27619e-36 7.35697e-37 9.19108e-38 8.33796e-39 5.49261e-40 2.62743e-41 9.12245e-43 2.24208e-44 0 0 0 0 0 0 0 0 0 0 0 0 0 0 0 0 0 0 0 0 0 0 0 0 0 0 0 1.96182e-44 4.1058e-43 6.22457e-42 6.86188e-41 5.49261e-40 3.19255e-39 1.34748e-38 4.12982e-38 9.19108e-38 1.48535e-37 1.74307e-37 1.48535e-37 9.19108e-38 4.12982e-38 1.34748e-38 3.19255e-39 5.49261e-40 6.86188e-41 6.22457e-42 4.1058e-43 1.96182e-44 0 0 0 0 0 0 0 0 0 0 0 0 0 0 0 0 0 0 0 0 0 0 0 0 0 0 0 0 0 0 0 2.8026e-45 3.78351e-44 2.97075e-43 1.7306e-42 7.30497e-42 2.23885e-41 4.98274e-41 8.05256e-41 9.4498e-41 8.05256e-41 4.98274e-41 2.23885e-41 7.30497e-42 1.7306e-42 2.97075e-43 3.78351e-44 2.8026e-45 0 0 0 0 0 0 0 0 0 0 0 0 0 0 0 0 0 0 0 0 0 0 0 0 0 0 0 0 0 0 0 0 0 0 0 0 0 2.8026e-45 8.40779e-45 1.96182e-44 3.22299e-44 3.78351e-44 3.22299e-44 1.96182e-44 8.40779e-45 2.8026e-45 0 0 0 0 0 0 0 0 0 0 0 0 0 0 0 0 0 0 0 0 0 0 0 0 0 0 0 0 0 0 0 0 0 0 0 0 0 0 0 0 0 0 0 0 0 0 0 0 0 0 0 0 0 0 0 0 0 0 0 0 0 0 0 0 0 0 0 0 0 0 0 0 0 0 0 0 0 0 0 0 0 0 0 0 0 0 0 0 0 0 0 0 0 0 0 0 0 0 0 0 0 0 0 0 0 0 0 0 0 0 0 0 0 0 0 0 0 0 0 0 0 0 0 0 0 0 0 0 0 0 0 0 0 0 0 0 0 0 0 0 0 0 0 0 0 0 0 0 0 0 0 0 0 0 0 0 0 0 0 0 0 0 0 0 0 0 0 0 0 0 0 0 0 0 0 0 0 0 0 0 0 0 0 0 0 0 0 0 0 0 0 0 0 0 0 0 0 0 0 0 0 0 0 0 0 0 0 0 0 0 0 0 0 0 0 0 0 0 0 0 0 0 0 0 0 0 0 0 0 0 0 0 0 0 0 0 0 0 0 0 0 0 0 0 0 0 0 0 0 0 0 0 0 0 0 0 0 0 0 0 0 0 0 0 0 0 0 0 0 0 0 0 0 0 0 0 0 0 0 0 0 0 0 0 0 0 0 0 0 0 0 0 0 0 0 0 0 0 0 0 0 0 0 0 0 0 0 0 0 0 0 0 0 0 0 0 0 0 0 0 0 0 0 0 0 0 0 0 0 0 0 0 0 0 0 0 0 0 0 0 0 0 0 0 0 0 0 0 0 0 0 0 0 0 0 0 0 0 0 0 0 0 0 0 0 0 0 0 0 0 0 0 0 0 0 0 0 0 0 0 0 0 0 0 0 0 0 0 0 0 0 0 0 0 0 0 0 0 0 0 0 0 0 0 0 0 0 0 0 0 0 0 0 0 0 0 0 0 0 0 0 0 0 0 0 0 0 0 0 0 0 0 0 0 0 0 0 0 0 0 0 0 0 0 0 0 0 0 0 0 0 0 0 0 0 0 0 0 0 0 0 0 0 0 0 0 0 0 0 0 0 0 0 0 0 0 0 0 0 0 0 0 0 0 0 0 0 0 0 0 0 0 0 0 0 0 0 0 0 0 0 0 0 0 0 0 0 0 0 0 0 0 0 0 0 0 0 0 0 0 0 0 0 0 0 0 0 0 0 0 0 0 0 0 0 0 0 0 0 0 0 0 0 0 0 0 0 0 0 0 0 0 0 0 0 0 0 0 0 0 0 0 0 0 0 0 0 0 0 0 0 0 0 0 0 0 0 0 0 0 0 0 0 0 0 0 0 0 0 0 0 0 0 0 0 0 0 0 0 0 0 0 0 0 0 0 0 0 0 0 0 0 0 0 0 0 0 0 0 0 0 0 0 0 0 0 0 0 0 0 0 0 0
</DataArray>

      </CellData>
    </Piece>
  </UnstructuredGrid>
</VTKFile>