<?xml version="1.0"?>

<VTKFile type="UnstructuredGrid" >
  <UnstructuredGrid>
    <Piece NumberOfPoints="2929"  NumberOfCells="2800" >
      <Cells><DataArray Name="connectivity" type="Int32" format="ascii" >
 0 29 30 1 1 30 31 2 2 31 32 3 3 32 33 4 4 33 34 5 5 34 35 6 6 35 36 7 7 36 37 8 8 37 38 9 9 38 39 10 10 39 40 11 11 40 41 12 12 41 42 13 13 42 43 14 14 43 44 15 15 44 45 16 16 45 46 17 17 46 47 18 18 47 48 19 19 48 49 20 20 49 50 21 21 50 51 22 22 51 52 23 23 52 53 24 24 53 54 25 25 54 55 26 26 55 56 27 27 56 57 28 29 58 59 30 30 59 60 31 31 60 61 32 32 61 62 33 33 62 63 34 34 63 64 35 35 64 65 36 36 65 66 37 37 66 67 38 38 67 68 39 39 68 69 40 40 69 70 41 41 70 71 42 42 71 72 43 43 72 73 44 44 73 74 45 45 74 75 46 46 75 76 47 47 76 77 48 48 77 78 49 49 78 79 50 50 79 80 51 51 80 81 52 52 81 82 53 53 82 83 54 54 83 84 55 55 84 85 56 56 85 86 57 58 87 88 59 59 88 89 60 60 89 90 61 61 90 91 62 62 91 92 63 63 92 93 64 64 93 94 65 65 94 95 66 66 95 96 67 67 96 97 68 68 97 98 69 69 98 99 70 70 99 100 71 71 100 101 72 72 101 102 73 73 102 103 74 74 103 104 75 75 104 105 76 76 105 106 77 77 106 107 78 78 107 108 79 79 108 109 80 80 109 110 81 81 110 111 82 82 111 112 83 83 112 113 84 84 113 114 85 85 114 115 86 87 116 117 88 88 117 118 89 89 118 119 90 90 119 120 91 91 120 121 92 92 121 122 93 93 122 123 94 94 123 124 95 95 124 125 96 96 125 126 97 97 126 127 98 98 127 128 99 99 128 129 100 100 129 130 101 101 130 131 102 102 131 132 103 103 132 133 104 104 133 134 105 105 134 135 106 106 135 136 107 107 136 137 108 108 137 138 109 109 138 139 110 110 139 140 111 111 140 141 112 112 141 142 113 113 142 143 114 114 143 144 115 116 145 146 117 117 146 147 118 118 147 148 119 119 148 149 120 120 149 150 121 121 150 151 122 122 151 152 123 123 152 153 124 124 153 154 125 125 154 155 126 126 155 156 127 127 156 157 128 128 157 158 129 129 158 159 130 130 159 160 131 131 160 161 132 132 161 162 133 133 162 163 134 134 163 164 135 135 164 165 136 136 165 166 137 137 166 167 138 138 167 168 139 139 168 169 140 140 169 170 141 141 170 171 142 142 171 172 143 143 172 173 144 145 174 175 146 146 175 176 147 147 176 177 148 148 177 178 149 149 178 179 150 150 179 180 151 151 180 181 152 152 181 182 153 153 182 183 154 154 183 184 155 155 184 185 156 156 185 186 157 157 186 187 158 158 187 188 159 159 188 189 160 160 189 190 161 161 190 191 162 162 191 192 163 163 192 193 164 164 193 194 165 165 194 195 166 166 195 196 167 167 196 197 168 168 197 198 169 169 198 199 170 170 199 200 171 171 200 201 172 172 201 202 173 174 203 204 175 175 204 205 176 176 205 206 177 177 206 207 178 178 207 208 179 179 208 209 180 180 209 210 181 181 210 211 182 182 211 212 183 183 212 213 184 184 213 214 185 185 214 215 186 186 215 216 187 187 216 217 188 188 217 218 189 189 218 219 190 190 219 220 191 191 220 221 192 192 221 222 193 193 222 223 194 194 223 224 195 195 224 225 196 196 225 226 197 197 226 227 198 198 227 228 199 199 228 229 200 200 229 230 201 201 230 231 202 203 232 233 204 204 233 234 205 205 234 235 206 206 235 236 207 207 236 237 208 208 237 238 209 209 238 239 210 210 239 240 211 211 240 241 212 212 241 242 213 213 242 243 214 214 243 244 215 215 244 245 216 216 245 246 217 217 246 247 218 218 247 248 219 219 248 249 220 220 249 250 221 221 250 251 222 222 251 252 223 223 252 253 224 224 253 254 225 225 254 255 226 226 255 256 227 227 256 257 228 228 257 258 229 229 258 259 230 230 259 260 231 232 261 262 233 233 262 263 234 234 263 264 235 235 264 265 236 236 265 266 237 237 266 267 238 238 267 268 239 239 268 269 240 240 269 270 241 241 270 271 242 242 271 272 243 243 272 273 244 244 273 274 245 245 274 275 246 246 275 276 247 247 276 277 248 248 277 278 249 249 278 279 250 250 279 280 251 251 280 281 252 252 281 282 253 253 282 283 254 254 283 284 255 255 284 285 256 256 285 286 257 257 286 287 258 258 287 288 259 259 288 289 260 261 290 291 262 262 291 292 263 263 292 293 264 264 293 294 265 265 294 295 266 266 295 296 267 267 296 297 268 268 297 298 269 269 298 299 270 270 299 300 271 271 300 301 272 272 301 302 273 273 302 303 274 274 303 304 275 275 304 305 276 276 305 306 277 277 306 307 278 278 307 308 279 279 308 309 280 280 309 310 281 281 310 311 282 282 311 312 283 283 312 313 284 284 313 314 285 285 314 315 286 286 315 316 287 287 316 317 288 288 317 318 289 290 319 320 291 291 320 321 292 292 321 322 293 293 322 323 294 294 323 324 295 295 324 325 296 296 325 326 297 297 326 327 298 298 327 328 299 299 328 329 300 300 329 330 301 301 330 331 302 302 331 332 303 303 332 333 304 304 333 334 305 305 334 335 306 306 335 336 307 307 336 337 308 308 337 338 309 309 338 339 310 310 339 340 311 311 340 341 312 312 341 342 313 313 342 343 314 314 343 344 315 315 344 345 316 316 345 346 317 317 346 347 318 319 348 349 320 320 349 350 321 321 350 351 322 322 351 352 323 323 352 353 324 324 353 354 325 325 354 355 326 326 355 356 327 327 356 357 328 328 357 358 329 329 358 359 330 330 359 360 331 331 360 361 332 332 361 362 333 333 362 363 334 334 363 364 335 335 364 365 336 336 365 366 337 337 366 367 338 338 367 368 339 339 368 369 340 340 369 370 341 341 370 371 342 342 371 372 343 343 372 373 344 344 373 374 345 345 374 375 346 346 375 376 347 348 377 378 349 349 378 379 350 350 379 380 351 351 380 381 352 352 381 382 353 353 382 383 354 354 383 384 355 355 384 385 356 356 385 386 357 357 386 387 358 358 387 388 359 359 388 389 360 360 389 390 361 361 390 391 362 362 391 392 363 363 392 393 364 364 393 394 365 365 394 395 366 366 395 396 367 367 396 397 368 368 397 398 369 369 398 399 370 370 399 400 371 371 400 401 372 372 401 402 373 373 402 403 374 374 403 404 375 375 404 405 376 377 406 407 378 378 407 408 379 379 408 409 380 380 409 410 381 381 410 411 382 382 411 412 383 383 412 413 384 384 413 414 385 385 414 415 386 386 415 416 387 387 416 417 388 388 417 418 389 389 418 419 390 390 419 420 391 391 420 421 392 392 421 422 393 393 422 423 394 394 423 424 395 395 424 425 396 396 425 426 397 397 426 427 398 398 427 428 399 399 428 429 400 400 429 430 401 401 430 431 402 402 431 432 403 403 432 433 404 404 433 434 405 406 435 436 407 407 436 437 408 408 437 438 409 409 438 439 410 410 439 440 411 411 440 441 412 412 441 442 413 413 442 443 414 414 443 444 415 415 444 445 416 416 445 446 417 417 446 447 418 418 447 448 419 419 448 449 420 420 449 450 421 421 450 451 422 422 451 452 423 423 452 453 424 424 453 454 425 425 454 455 426 426 455 456 427 427 456 457 428 428 457 458 429 429 458 459 430 430 459 460 431 431 460 461 432 432 461 462 433 433 462 463 434 435 464 465 436 436 465 466 437 437 466 467 438 438 467 468 439 439 468 469 440 440 469 470 441 441 470 471 442 442 471 472 443 443 472 473 444 444 473 474 445 445 474 475 446 446 475 476 447 447 476 477 448 448 477 478 449 449 478 479 450 450 479 480 451 451 480 481 452 452 481 482 453 453 482 483 454 454 483 484 455 455 484 485 456 456 485 486 457 457 486 487 458 458 487 488 459 459 488 489 460 460 489 490 461 461 490 491 462 462 491 492 463 464 493 494 465 465 494 495 466 466 495 496 467 467 496 497 468 468 497 498 469 469 498 499 470 470 499 500 471 471 500 501 472 472 501 502 473 473 502 503 474 474 503 504 475 475 504 505 476 476 505 506 477 477 506 507 478 478 507 508 479 479 508 509 480 480 509 510 481 481 510 511 482 482 511 512 483 483 512 513 484 484 513 514 485 485 514 515 486 486 515 516 487 487 516 517 488 488 517 518 489 489 518 519 490 490 519 520 491 491 520 521 492 493 522 523 494 494 523 524 495 495 524 525 496 496 525 526 497 497 526 527 498 498 527 528 499 499 528 529 500 500 529 530 501 501 530 531 502 502 531 532 503 503 532 533 504 504 533 534 505 505 534 535 506 506 535 536 507 507 536 537 508 508 537 538 509 509 538 539 510 510 539 540 511 511 540 541 512 512 541 542 513 513 542 543 514 514 543 544 515 515 544 545 516 516 545 546 517 517 546 547 518 518 547 548 519 519 548 549 520 520 549 550 521 522 551 552 523 523 552 553 524 524 553 554 525 525 554 555 526 526 555 556 527 527 556 557 528 528 557 558 529 529 558 559 530 530 559 560 531 531 560 561 532 532 561 562 533 533 562 563 534 534 563 564 535 535 564 565 536 536 565 566 537 537 566 567 538 538 567 568 539 539 568 569 540 540 569 570 541 541 570 571 542 542 571 572 543 543 572 573 544 544 573 574 545 545 574 575 546 546 575 576 547 547 576 577 548 548 577 578 549 549 578 579 550 551 580 581 552 552 581 582 553 553 582 583 554 554 583 584 555 555 584 585 556 556 585 586 557 557 586 587 558 558 587 588 559 559 588 589 560 560 589 590 561 561 590 591 562 562 591 592 563 563 592 593 564 564 593 594 565 565 594 595 566 566 595 596 567 567 596 597 568 568 597 598 569 569 598 599 570 570 599 600 571 571 600 601 572 572 601 602 573 573 602 603 574 574 603 604 575 575 604 605 576 576 605 606 577 577 606 607 578 578 607 608 579 580 609 610 581 581 610 611 582 582 611 612 583 583 612 613 584 584 613 614 585 585 614 615 586 586 615 616 587 587 616 617 588 588 617 618 589 589 618 619 590 590 619 620 591 591 620 621 592 592 621 622 593 593 622 623 594 594 623 624 595 595 624 625 596 596 625 626 597 597 626 627 598 598 627 628 599 599 628 629 600 600 629 630 601 601 630 631 602 602 631 632 603 603 632 633 604 604 633 634 605 605 634 635 606 606 635 636 607 607 636 637 608 609 638 639 610 610 639 640 611 611 640 641 612 612 641 642 613 613 642 643 614 614 643 644 615 615 644 645 616 616 645 646 617 617 646 647 618 618 647 648 619 619 648 649 620 620 649 650 621 621 650 651 622 622 651 652 623 623 652 653 624 624 653 654 625 625 654 655 626 626 655 656 627 627 656 657 628 628 657 658 629 629 658 659 630 630 659 660 631 631 660 661 632 632 661 662 633 633 662 663 634 634 663 664 635 635 664 665 636 636 665 666 637 638 667 668 639 639 668 669 640 640 669 670 641 641 670 671 642 642 671 672 643 643 672 673 644 644 673 674 645 645 674 675 646 646 675 676 647 647 676 677 648 648 677 678 649 649 678 679 650 650 679 680 651 651 680 681 652 652 681 682 653 653 682 683 654 654 683 684 655 655 684 68
[...]
      <PointData Vectors="UU" ><DataArray Name="UU" NumberOfComponents="3" type="Float32" format="ascii" >
 0 0 0 0.0834252 0 0 0.166968 0 0 0.250112 0 0 0.332252 0 0 0.412684 0 0 0.490588 0 0 0.565015 0 0 0.634872 0 0 0.698899 0 0 0.755653 0 0 0.803479 0 0 0.840488 0 0 0.864525 0 0 0.873137 0 0 0.864525 0 0 0.840488 0 0 0.803479 0 0 0.755653 0 0 0.698899 0 0 0.634872 0 0 0.565015 0 0 0.490588 0 0 0.412684 0 0 0.332252 0 0 0.250112 0 0 0.166968 0 0 0.0834252 0 0 0 0 0 0 0 0 0.0834329 -1.79525e-06 0 0.166981 -6.90901e-06 0 0.250125 -1.36881e-05 0 0.332268 -2.15101e-05 0 0.412696 -2.94401e-05 0 0.490603 -3.75777e-05 0 0.565025 -4.53719e-05 0 0.634885 -5.30588e-05 0 0.698906 -6.00783e-05 0 0.755664 -6.66198e-05 0 0.803481 -7.20791e-05 0 0.840495 -7.65574e-05 0 0.864523 -7.94362e-05 0 0.873141 -8.06512e-05 0 0.864519 -7.98557e-05 0 0.840487 -7.71656e-05 0 0.803469 -7.30828e-05 0 0.755648 -6.76108e-05 0 0.698887 -6.13208e-05 0 0.634864 -5.41113e-05 0 0.565001 -4.65257e-05 0 0.490577 -3.84028e-05 0 0.412668 -3.02617e-05 0 0.332239 -2.19337e-05 0 0.250096 -1.41061e-05 0 0.166956 -6.97463e-06 0 0.0834168 -1.97937e-06 0 0 0 0 0 0 0 0.0834558 -3.52864e-06 0 0.167014 -1.233e-05 0 0.250168 -2.55757e-05 0 0.332307 -4.04573e-05 0 0.412741 -5.69017e-05 0 0.490637 -7.29795e-05 0 0.565065 -8.93519e-05 0 0.634912 -0.000104572 0 0.698939 -0.000119355 0 0.755681 -0.000132304 0 0.803506 -0.000143879 0 0.840502 -0.000152734 0 0.864537 -0.000158942 0 0.873135 -0.000161388 0 0.86452 -0.000159791 0 0.840469 -0.000154603 0 0.803458 -0.000146071 0 0.755619 -0.000135297 0 0.698865 -0.000122121 0 0.634826 -0.000107781 0 0.56497 -9.18531e-05 0 0.490533 -7.56252e-05 0 0.41263 -5.85135e-05 0 0.332192 -4.20792e-05 0 0.250056 -2.60316e-05 0 0.166918 -1.29156e-05 0 0.0833949 -3.12192e-06 0 0 0 0 0 0 0 0.0834886 -4.12508e-06 0 0.167071 -1.74002e-05 0 0.250232 -3.5563e-05 0 0.332381 -5.84422e-05 0 0.412806 -8.22872e-05 0 0.490707 -0.000107746 0 0.565121 -0.000132106 0 0.634972 -0.000156479 0 0.698982 -0.000178684 0 0.755727 -0.000199534 0 0.803532 -0.00021703 0 0.840531 -0.000231371 0 0.864543 -0.000240814 0 0.873143 -0.00024489 0 0.864504 -0.000242607 0 0.840455 -0.000234504 0 0.803422 -0.000221833 0 0.755586 -0.000204869 0 0.698812 -0.000185199 0 0.634777 -0.000162507 0 0.564903 -0.000138598 0 0.49047 -0.000112751 0 0.412553 -8.71693e-05 0 0.332122 -6.11777e-05 0 0.249984 -3.81276e-05 0 0.166862 -1.7915e-05 0 0.0833591 -5.23539e-06 0 0 0 0 0 0 0 0.0835336 -6.37681e-06 0 0.167143 -2.19216e-05 0 0.250325 -4.66845e-05 0 0.332475 -7.52215e-05 0 0.412908 -0.000108242 0 0.490797 -0.000141451 0 0.565214 -0.000176187 0 0.635047 -0.000209093 0 0.699058 -0.000241346 0 0.755781 -0.000270005 0 0.803585 -0.000295508 0 0.840558 -0.000315243 0 0.864568 -0.000328864 0 0.873138 -0.000334366 0 0.864497 -0.000331152 0 0.84042 -0.000320241 0 0.803386 -0.000302578 0 0.755524 -0.000280023 0 0.69875 -0.000252541 0 0.634692 -0.000222226 0 0.564818 -0.000188349 0 0.490367 -0.000153499 0 0.412454 -0.000116803 0 0.332013 -8.21764e-05 0 0.249889 -4.92768e-05 0 0.166781 -2.3824e-05 0 0.0833137 -5.35321e-06 0 0 0 0 0 0 0 0.0835874 -6.16325e-06 0 0.167236 -2.65973e-05 0 0.250435 -5.43578e-05 0 0.332602 -9.08259e-05 0 0.413032 -0.000130503 0 0.490928 -0.000175184 0 0.565329 -0.000219961 0 0.635163 -0.000266132 0 0.699151 -0.000309228 0 0.75587 -0.000349702 0 0.803644 -0.000383591 0 0.840609 -0.000410549 0 0.864585 -0.000427581 0 0.873146 -0.000433961 0 0.864471 -0.000428681 0 0.840387 -0.000413533 0 0.803323 -0.000391002 0 0.755458 -0.000361784 0 0.698656 -0.000328129 0 0.634594 -0.000289234 0 0.564695 -0.000247531 0 0.490241 -0.000201641 0 0.412309 -0.000155373 0 0.331876 -0.000108084 0 0.249755 -6.63773e-05 0 0.166679 -3.0498e-05 0 0.0832526 -8.88362e-06 0 0 0 0 0 0 0 0.0836475 -7.84765e-06 0 0.167332 -2.60612e-05 0 0.250565 -5.72885e-05 0 0.332748 -9.64925e-05 0 0.413199 -0.000147563 0 0.491092 -0.000204386 0 0.5655 -0.000267889 0 0.635312 -0.000330824 0 0.699293 -0.000392711 0 0.755977 -0.000447152 0 0.803736 -0.000493197 0 0.840658 -0.000526126 0 0.864617 -0.000545232 0 0.873135 -0.000548426 0 0.864447 -0.000536887 0 0.840328 -0.000514607 0 0.803258 -0.000484466 0 0.755363 -0.000449579 0 0.698557 -0.000409586 0 0.634466 -0.000366477 0 0.564559 -0.000317813 0 0.490074 -0.000265889 0 0.412135 -0.000208136 0 0.331685 -0.000149952 0 0.249581 -9.15947e-05 0 0.166534 -4.43145e-05 0 0.0831715 -1.00371e-05 0 0 0 0 0 0 0 0.0836969 -3.68815e-06 0 0.167424 -2.02467e-05 0 0.250695 -4.68179e-05 0 0.33293 -9.34824e-05 0 0.413412 -0.000156796 0 0.491334 -0.000239114 0 0.565733 -0.000329293 0 0.63554 -0.000423574 0 0.699479 -0.000510409 0 0.756135 -0.000586453 0 0.803836 -0.000643693 0 0.840723 -0.000680558 0 0.864623 -0.000693504 0 0.873115 -0.000683802 0 0.864382 -0.000655334 0 0.840256 -0.000616429 0 0.803159 -0.000573673 0 0.755266 -0.000529432 0 0.698436 -0.000486493 0 0.634343 -0.000442016 0 0.564404 -0.000396168 0 0.489902 -0.000342693 0 0.41192 -0.000282124 0 0.331451 -0.000210217 0 0.249334 -0.000136517 0 0.166328 -6.60499e-05 0 0.083047 -1.9007e-05 0 0 0 0 0 0 0 0.0837232 -2.43727e-06 0 0.167492 -8.9952e-06 0 0.250842 -3.8123e-05 0 0.333159 -9.46193e-05 0 0.413725 -0.000188551 0 0.491682 -0.000308472 0 0.566094 -0.000447072 0 0.635856 -0.000583894 0 0.69975 -0.000708871 0 0.756321 -0.000806911 0 0.803957 -0.00087333 0 0.840755 -0.000901273 0 0.864599 -0.000891792 0 0.873023 -0.000846977 0 0.86427 -0.000778991 0 0.840115 -0.000704579 0 0.803031 -0.000633589 0 0.755133 -0.000573301 0 0.698325 -0.000523697 0 0.634223 -0.000484982 0 0.564283 -0.000448385 0 0.489735 -0.000408451 0 0.411706 -0.000352135 0 0.331165 -0.000278898 0 0.249017 -0.00018696 0 0.166028 -9.71247e-05 0 0.0828606 -2.44642e-05 0 0 0 0 0 0 0 0.0837241 2.22712e-06 0 0.167567 -1.00123e-05 0 0.251045 -5.33438e-05 0 0.333518 -0.000151385 0 0.414197 -0.000298565 0 0.492222 -0.000488619 0 0.566614 -0.000692875 0 0.636319 -0.000891457 0 0.700092 -0.00105657 0 0.756549 -0.00117536 0 0.80404 -0.00123379 0 0.840729 -0.00123034 0 0.864457 -0.00116475 0 0.872821 -0.00104676 0 0.864018 -0.000899718 0 0.839876 -0.000753799 0 0.802805 -0.00062723 0 0.754965 -0.000528879 0 0.698194 -0.000464297 0 0.634145 -0.000427425 0 0.564206 -0.000411145 0 0.48964 -0.000395779 0 0.411526 -0.000367994 0 0.330891 -0.000309548 0 0.248647 -0.000224725 0 0.165653 -0.000120842 0 0.0825987 -3.66209e-05 0 0 0 0 0 0 0 0.0837427 -6.56234e-06 0 0.167735 -4.02715e-05 0 0.251446 -0.000144897 0 0.334134 -0.000326085 0 0.414969 -0.000581429 0 0.493029 -0.000874902 0 0.567372 -0.00117653 0 0.636924 -0.00144325 0 0.700518 -0.00164966 0 0.756749 -0.00176898 0 0.804045 -0.00179278 0 0.840533 -0.00171495 0 0.864125 -0.00154378 0 0.872375 -0.00129356 0 0.863548 -0.00100757 0 0.839414 -0.00073638 0 0.802426 -0.000506233 0 0.754674 -0.000335454 0 0.698034 -0.000228427 0 0.634081 -0.000184634 0 0.564228 -0.000186822 0 0.489663 -0.000216734 0 0.411496 -0.000242304 0 0.330723 -0.000243452 0 0.248343 -0.000198756 0 0.165262 -0.000121875 0 0.0822933 -3.45921e-05 0 0 0 0 0 0 0 0.0838651 -2.1982e-05 0 0.168175 -0.000126759 0 0.252252 -0.000346045 0 0.33524 -0.000689746 0 0.416206 -0.00111349 0 0.494244 -0.00157034 0 0.568403 -0.00199459 0 0.637698 -0.0023438 0 0.700958 -0.00257501 0 0.75687 -0.00266966 0 0.803839 -0.00261183 0 0.840069 -0.00240518 0 0.863435 -0.00205931 0 0.871567 -0.00160098 0 0.862688 -0.0010979 0 0.83862 -0.00062809 0 0.801744 -0.000231975 0 0.754187 6.6784e-05 0 0.697749 0.000253109 0 0.634029 0.000330703 0 0.564351 0.000309009 0 0.489912 0.000218936 0 0.411741 9.33627e-05 0 0.330864 -1.72923e-05 0 0.248273 -8.14752e-05 0 0.165011 -7.49381e-05 0 0.0820118 -3.10699e-05 0 0 0 0 0 0 0 0.0842249 -6.19516e-05 0 0.169109 -0.00027575 0 0.253753 -0.000689664 0 0.337097 -0.00126807 0 0.418151 -0.00194667 0 0.495996 -0.00262162 0 0.569796 -0.00321388 0 0.638608 -0.00365059 0 0.701376 -0.00389773 0 0.756782 -0.00392821 0 0.803316 -0.00374025 0 0.839153 -0.00333656 0 0.862247 -0.00274011 0 0.870191 -0.00198584 0 0.861288 -0.00117606 0 0.837294 -0.000424867 0 0.800629 0.000214312 0 0.753344 0.000702233 0 0.697268 0.00101983 0 0.633917 0.0011559 0 0.564622 0.00112314 0 0.490471 0.00094475 0 0.412464 0.000677981 0 0.331523 0.000387978 0 0.24869 0.000156608 0 0.165081 2.35165e-05 0 0.0818688 -2.27301e-06 0 0 0 0 0 0 0 0.0849643 -0.000110493 0 0.170786 -0.000491815 0 0.256225 -0.00115681 0 0.340006 -0.00205571 0 0.42103 -0.00305514 0 0.498478 -0.00402148 0 0.571614 -0.0048191 0 0.639683 -0.00536981 0 0.701682 -0.00562056 0 0.756401 -0.00556197 0 0.802306 -0.00519172 0 0.837651 -0.00453032 0 0.860353 -0.00360582 0 0.868089 -0.00247022 0 0.85913 -0.00126498 0 0.835281 -0.000147568 0 0.798883 0.000807968 0 0.752025 0.00155143 0 0.69646 0.0020434 0 0.633727 0.00226714 0 0.565054 0.0022174 0 0.49148 0.00193013 0 0.413828 0.00147042 0 0.332947 0.000952334 0 0.249805 0.000486783 0 0.165679 0.000174432 0 0.0819745 2.69115e-05 0 0 0 0 0 0 0 0.0862157 -0.000181362 0 0.1734 -0.000751824 0 0.259913 -0.00172545 0 0.34419 -0.00298784 0 0.425083 -0.0043762 0 0.501845 -0.00568127 0 0.573992 -0.00674081 0 0.640936 -0.00742961 0 0.701875 -0.00770014 0 0.75562 -0.00753476 0 0.800721 -0.00695412 0 0.83539 -0.00598378 0 0.857621 -0.00467169 0 0.865059 -0.00308204 0 0.856067 -0.00140551 0 0.832381 0.000148233 0 0.796378 0.0014858 0 0.750075 0.00253236 0 0.695268 0.00323613 0 0.633413 0.00355487 0 0.565718 0.00348499 0 0.493023 0.00305908 0 0.415999 0.00238191 0 0.335271 0.00159668 0 0.251793 0.000878339 0 0.166926 0.000349576 0 0.0824268 7.85871e-05 0 0 0 0 0 0 0 0.0880625 -0.00024937 0 0.17708 -0.00104007 0 0.264942 -0.00233127 0 0.349815 -0.00399424 0 0.430452 -0.00579308 0 0.506279 -0.00748867 0 0.57704 -0.00884729 0 0.642479 -0.00972514 0 0.701954 -0.0100391 0 0.754439 -0.00978533 0 0.798462 -0.00898394 0 0.832301 -0.0076853 0 0.853902 -0.00594745 0 0.861 -0.00385758 0 0.851933 -0.00165867 0 0.828492 0.000381225 0 0.792971 0.00213883 0 0.747439 0.00352025 0 0.693628 0.00444343 0 0.633016 0.00485895 0 0.566642 0.00474913 0 0.49519 0.00417564 0 0.419014 0.00326612 0 0.33856 0.0022235 0 0.254664 0.00125049 0 0.168874 0.000526064 0 0.0832522 0.000113918 0 0 0 0 0 0 0 0.0905419 -0.00032891 0 0.181847 -0.00132285 0 0.271351 -0.00293778 0 0.356909 -0.00498236 0 0.437239 -0.0072081 0 0.51188 -0.00930471 0 0.580924 -0.0110118 0 0.644415 -0.0121202 0 0.702042 -0.0125353 0 0.752876 -0.0122274 0 0.795561 -0.0112352 0 0.82832 -0.00961424 0 0.849168 -0.0074484 0 0.855806 -0.00484268 0 0.846682 -0.00210093 0 0.823513 0.000442293 0 0.788639 0.00263503 0 0.744068 0.00434862 0 0.691585 0.00548568 0 0.63255 0.00597414 0 0.567892 0.00581603 0 0.497964 0.00508893 0 0.422844 0.0039773 0 0.342687 0.00271321 0 0.258322 0.0015486 0 0.171414 0.000661493 0 0.0844247 0.00015954 0 0 0 0 0 0 0 0.0936332 -0.000392083 0 0.187655 -0.00158977 0 0.279052 -0.00348754 0 0.365436 -0.00589843 0 0.445428 -0.00851873 0 0.518747 -0.011031 0 0.585755 -0.0131053 0 0.646936 -0.0145064 0 0.702263 -0.0150798 0 0.751084 -0.01479 0 0.792068 -0.0136584 0 0.823523 -0.0117621 0 0.843404 -0.00919656 0 0.849507 -0.00609628 0 0.840271 -0.00282634 0 0.817472 0.000208443 0 0.783369 0.00281438 0 0.740036 0.004838 0 0.689175 0.00615181 0 0.632101 0.00669342 0 0.56945 0.00647307 0 0.501283 0.00562381 0 0.42728 0.00436124 0 0.347423 0.00296628 0 0.262475 0.00169037 0 0.174355 0.000732676 0 0.0858217 0.000166288 0 0 0 0 0 0 0 0.0972872 -0.000460148 0 0.194383 -0.00181907 0 0.287914 -0.00397517 0 0.37525 -0.00669218 0 0.454974 -0.00968467 0 0.526884 -0.0125855 0 0.59168 -0.0150561 0 0.650196 -0.0167894 0 0.702854 -0.0176038 0 0.749221 -0.0174099 0 0.788174 -0.0162288 0 0.817998 -0.0141293 0 0.836733 -0.0112318 0 0.842141 -0.00769284 0 0.832798 -0.00394417 0 0.810407 -0.000466871 0 0.77728 0.00250727 0 0.735416 0.00478611 0 0.686525 0.00623878 0 0.631688 0.00680124 0 0.571288 0.00653545 0 0.50494 0.00560857 0 0.432035 0.00429611 0 0.352344 0.00288583 0 0.266748 0.00163719 0 0.177347 0.000705768 0 0.087285 0.00017499 0 0 0 0 0 0 0 0.101431 -0.000506327 0 0.201905 -0.00202037 0 0.297754 -0.00437891 0 0.386204 -0.00737132 0 0.465747 -0.0106779 0 0.536298 -0.0139567 0 0.598759 -0.0168173 0 0.654404 -0.0189363 0 0.704017 -0.0200574 0 0.747569 -0.0200647 0 0.784075 -0.0189349 0 0.81198 -0.0167424 0 0.829291 -0.0136108 0 0.833891 -0.00972815 0 0.824369 -0.00558812 0 0.802496 -0.00174612 0 0.770491 0.00151587 0 0.730386 0.00398593 0 0.683708 0.00551939 0 0.631348 0.00609466 0 0.573243 0.0058091 0 0.508652 0.0049041 0 0.436635 0.003672 0 0.356957 0.00241125 0 0.270607 0.00133393 0 0.18002 0.000566816 0 0.0885659 0.000123769 0 0 0 0 0 0 0 0.106006 -0.000560632 0 0.210093 -0.00218973 0 0.30843 -0.00473649 0 0.39812 -0.00794699 0 0.477644 -0.0115439 0 0.546916 -0.0151571 0 0.607078 -0.0184174 0 0.659692 -0.0209422 0 0.706025 -0.0224501 0 0.746374 -0.0227526 0 0.780095 -0.0218035 0 0.805707 -0.0196463 0 0.821366 -0.0164177 0 0.824953 -0.0123239 0 0.815239 -0.00791819 0 0.793921 -0.00382943 0 0.763243 -0.000378267 0 0.72508 0.00219562 0 0.680836 0.00377364 0 0.630986 0.00436373 0 0.57509 0.00414266 0 0.511965 0.00337994 0 0.440536 0.00240377 0 0.360603 0.00147676 0 0.27348 0.000764137 0 0.181864 0.000304434 0 0.0894357 7.90849e-05 0 0 0 0 0 0 0 0.110969 -0.000596911 0 0.218887 -0.00235559 0 0.319827 -0.0050591 0 0.410899 -0.00848664 0 0.490532 -0.0123311 0 0.558703 -0.0162716 0 0.616632 -0.0199097 0 0.666221 -0.0228742 0 0.709076 -0.0248186 0 0.745975 -0.0255249 0 0.776535 -0.0248831 0 0.799559 -0.022922 0 0.813254 -0.0197632 0 0.815685 -0.0156362 0 0.805681 -0.0111367 0 0.785007 -0.00695051 0 0.755749 -0.00344094 0 0.719703 -0.000843621 0 0.677904 0.000740136 0 0.630464 0.00139486 0 0.576414 0.00134209 0 0.514311 0.000918431 0 0.443004 0.000420944 0 0.362583 5.81229e-05 0 0.274694 -0.000106197 0 0.182425 -0.000107826 0 0.0895576 -5.06483e-05 0 0 0 0 0 0 0 0.116325 -0.000652259 0 0.228274 -0.00252443 0 0.331946 -0.0054134 0 0.424482 -0.00904274 0 0.504378 -0.0131502 0 0.571586 -0.0173917 0 0.62746 -0.0214173 0 0.674058 -0.0248228 0 0.713409 -0.0272642 0 0.746637 -0.0284584 0 0.773804 -0.028269 0 0.793911 -0.0266754 0 0.805421 -0.0237951 0 0.806472 -0.0198594 0 0.796139 -0.015488 0 0.776085 -0.0114034 0 0.748337 -0.00798366 0 0.714368 -0.00545937 0 0.674888 -0.00386535 0 0.629439 -0.00306377 0 0.576679 -0.00275151 0 0.51493 -0.00261355 0 0.443233 -0.00237564 0 0.362045 -0.00192302 0 0.273531 -0.00129145 0 0.181083 -0.00063832 0 0.088691 -0.00015148 0 0 0 0 0 0 0 0.122113 -0.000697707 0 0.238345 -0.00273113 0 0.344856 -0.00581802 0 0.438947 -0.00970502 0 0.519175 -0.0140811 0 0.585586 -0.0186548 0 0.639538 -0.0230582 0 0.683312 -0.0269333 0 0.719166 -0.0299016 0 0.74869 -0.0316797 0 0.772262 -0.0320744 0 0.789276 -0.031047 0 0.798352 -0.0286842 0 0.797901 -0.025222 0 0.787107 -0.0212673 0 0.767667 -0.0175348 0 0.74131 -0.0144014 0 0.709238 -0.0120412 0 0.671594 -0.0104299 0 0.627475 -0.00933654 0 0.57513 -0.00844989 0 0.512923 -0.00743835 0 0.440199 -0.00613289 0 0.358029 -0.00454164 0 0.269129 -0.00286207 0 0.177295 -0.00138566 0 0.0864152 -0.000379289 0 0 0 0 0 0 0 0.12842 -0.000773345 0 0.249239 -0.00297582 0 0.358749 -0.00633407 0 0.45443 -0.0105127 0 0.535056 -0.0152295 0 0.600729 -0.0201528 0 0.652936 -0.0249747 0 0.694017 -0.0293261 0 0.726544 -0.0328743 0 0.752377 -0.0353063 0 0.772358 -0.0364316 0 0.786144 -0.0361713 0 0.792712 -0.0346052 0 0.790614 -0.0319536 0 0.779315 -0.0287763 0 0.760333 -0.0257332 0 0.735167 -0.0231492 0 0.70447 -0.0211255 0 0.667898 -0.0195163 0 0.623979 -0.0180183 0 0.570835 -0.016246 0 0.507031 -0.0139648 0 0.432621 -0.0111472 0 0.349388 -0.00803637 0 0.260569 -0.00499324 0 0.170141 -0.00238344 0 0.0822294 -0.000596985 0 0 0 0 0 0 0 0.135348 -0.000842424 0 0.261158 -0.00328134 0 0.373845 -0.0069479 0 0.471184 -0.011514 0 0.552176 -0.0166178 0 0.617167 -0.0219674 0 0.667698 -0.0272302 0 0.706295 -0.0321073 0 0.735651 -0.0362653 0 0.758004 -0.0394396 0 0.774466 -0.041422 0 0.785127 -0.0421452 0 0.789169 -0.0416681 0 0.78547 -0.0402107 0 0.773587 -0.0382461 0 0.754959 -0.0363165 0 0.730562 -0.0346672 0 0.700545 -0.0332638 0 0.66385 -0.0318393 0 0.618664 -0.0299628 0 0.563078 -0.0272736 0 0.496244 -0.023561 0 0.418925 -0.018884 0 0.333831 -0.0135138 0 0.245294 -0.00809135 0 0.158178 -0.00361842 0 0.0758563 -0.000889425 0 0 0 0 0 0 0 0.143016 -0.000946091 0 0.274286 -0.00362883 0 0.390405 -0.00768213 0 0.489434 -0.0126736 0 0.570782 -0.0182549 0 0.635031 -0.0240693 0 0.683974 -0.0298416 0 0.720209 -0.0352684 0 0.746674 -0.040097 0 0.765776 -0.0440748 0 0.779025 -0.0470472 0 0.786746 -0.048945 0 0.788504 -0.0498494 0 0.783317 -0.049974 0 0.770963 -0.0496787 0 0.752522 -0.0493411 0 0.7285 -0.049082 0 0.698243 -0.048732 0 0.660142 -0.0478696 0 0.612009 -0.0460116 0 0.552201 -0.0427172 0 0.480498 -0.0378242 0 0.399035 -0.0315924 0 0.311922 -0.0248447 0 0.223419 -0.0182459 0 0.136268 -0.0113334 0 0.055927 -0.0037587 0 0 0 0 0 0 0 0.151522 -0.00103776 0 0.288775 -0.00401785 0 0.408588 -0.00846046 0 0.509405 -0.0139451 0 0.591036 -0.0200256 0 0.654516 -0.026376 0 0.701856 -0.0326816 0 0.735911 -0.0387165 0 0.75971 -0.0442442 0 0.775955 -0.0491 0 0.786334 -0.0531538 0 0.79155 -0.0563944 0 0.791346 -0.0589153 0 0.785039 -0.0609495 0 0.772357 -0.0627187 0 0.754096 -0.0643859 0 0.72996 -0.065932 0 0.698606 -0.0670142 0 0.657732 -0.0670978 0 0.605083 -0.0655913 0 0.539569 -0.0622106 0 0.462517 -0.0572086 0 0.3768 -0.0511294 0 0.284422 -0.0434581 0 0.18634 -0.0323256 0 0.0903069 -0.0176449 0 0.0190977 -0.00483104 0 0 0 0 0 0 0 0.160859 -0.00113977 0 0.304628 -0.00436305 0 0.428471 -0.00921299 0 0.531165 -0.0151621 0 0.613084 -0.0217823 0 0.675707 -0.0286683 0 0.721488 -0.0355579 0 0.753457 -0.0422118 0 0.774913 -0.0484862 0 0.788656 -0.0542479 0 0.796685 -0.0594558 0 0.799855 -0.0641299 0 0.798238 -0.0684164 0 0.791202 -0.0725566 0 0.778509 -0.0766123 0 0.760318 -0.0804881 0 0.735605 -0.0839764 0 0.702096 -0.0865642 0 0.657094 -0.0875656 0 0.598665 -0.0865295 0 0.526937 -0.0834085 0 0.442709 -0.077925 0 0.345041 -0.0682191 0 0.233567 -0.0519397 0 0.119417 -0.0307342 0 0.029412 -0.0121781 0 -0.0118232 -0.00238069 0 0 0 0 0 0 0 0.170717 -0.00115958 0 0.321684 -0.00456439 0 0.449948 -0.00973417 0 0.554722 -0.01615 0 0.636925 -0.023271 0 0.698692 -0.0307191 0 0.742888 -0.0381762 0 0.772945 -0.045477 0 0.792291 -0.0524878 0 0.803994 -0.059175 0 0.810138 -0.0655349 0 0.811872 -0.0716663 0 0.809344 -0.0777381 0 0.802094 -0.0840029 0 0.789549 -0.0903207 0 0.771257 -0.0962904 0 0.745121 -0.10148 0 0.708153 -0.10515 0 0.657535 -0.106621 0 0.591834 -0.105354 0 0.509322 -0.100132 0 0.406142 -0.0881027 0 0.281413 -0.067137 0 0.150349 -0.0408439 0 0.0438896 -0.0184631 0 -0.0150468 -0.00581883 0 -0.0265222 -0.00104758 0 0 0 0 0 0 0 0.180475 -0.00111614 0 0.33957 -0.00451899 0 0.47284 -0.00995259 0 0.579926 -0.0167421 0 0.662509 -0.0243453 0 0.723381 -0.0322868 0 0.766058 -0.0402993 0 0.79429 -0.0481915 0 0.811846 -0.0559199 0 0.821866 -0.0634741 0 0.826681 -0.0709418 0 0.827478 -0.0784492 0 0.82461 -0.0862061 0 0.817461 -0.0944303 0 0.805126 -0.102749 0 0.786081 -0.110397 0 0.757258 -0.116645 0 0.715038 -0.120618 0 0.656325 -0.121306 0 0.576809 -0.116722 0 0.469884 -0.103356 0 0.334094 -0.0793499 0 0.188005 -0.0496661 0 0.0663928 -0.0245388 0 -0.00808291 -0.00959812 0 -0.0377528 -0.00282352 0 -0.0328842 -0.000436243 0 0 0 0 0 0 0 0.189789 -0.0010563 0 0.357834 -0.00444512 0 0.496684 -0.00996097 0 0.606445 -0.0169995 0 0.689514 -0.0249136 0 0.749578 -0.033258 0 0.790758 -0.0416967 0 0.817362 -0.0501085 0 0.833346 -0.0584424 0 0.84212 -0.0667765 0 0.84602 -0.0752166 0 0.846421 -0.08395 0 0.843578 -0.0931755 0 0.836781 -0.103061 0 0.824258 -0.11293 0 0.803394 -0.121608 0 0.770025 -0.128121 0 0.719546 -0.131089 0 0.645234 -0.127895 0 0.537712 -0.114393 0 0.394082 -0.0885449 0 0.23485 -0.0559714 0 0.0986628 -0.0279259 0 0.00983148 -0.0107538 0 -0.0349101 -0.00279883 0 -0.0471716 -0.000148319 0 -0.0342446 0.000118958 0 0 0 0 0 0 0 0.199008 -0.00109377 0 0.375966 -0.0044