<?xml version="1.0"?>

<VTKFile type="UnstructuredGrid" >
  <UnstructuredGrid>
    <Piece NumberOfPoints="5320"  NumberOfCells="5100" >
      <Cells><DataArray Name="connectivity" type="Int32" format="ascii" >
 66 67 130 110 67 68 179 130 68 69 228 179 69 70 277 228 70 71 326 277 71 72 375 326 72 73 424 375 73 74 473 424 74 75 522 473 75 76 571 522 76 77 620 571 77 78 669 620 78 79 718 669 79 80 767 718 80 0 2 767 110 130 131 109 130 179 180 131 179 228 229 180 228 277 278 229 277 326 327 278 326 375 376 327 375 424 425 376 424 473 474 425 473 522 523 474 522 571 572 523 571 620 621 572 620 669 670 621 669 718 719 670 718 767 768 719 767 2 3 768 109 131 132 108 131 180 181 132 180 229 230 181 229 278 279 230 278 327 328 279 327 376 377 328 376 425 426 377 425 474 475 426 474 523 524 475 523 572 573 524 572 621 622 573 621 670 671 622 670 719 720 671 719 768 769 720 768 3 4 769 108 132 133 107 132 181 182 133 181 230 231 182 230 279 280 231 279 328 329 280 328 377 378 329 377 426 427 378 426 475 476 427 475 524 525 476 524 573 574 525 573 622 623 574 622 671 672 623 671 720 721 672 720 769 770 721 769 4 5 770 107 133 134 106 133 182 183 134 182 231 232 183 231 280 281 232 280 329 330 281 329 378 379 330 378 427 428 379 427 476 477 428 476 525 526 477 525 574 575 526 574 623 624 575 623 672 673 624 672 721 722 673 721 770 771 722 770 5 6 771 106 134 135 105 134 183 184 135 183 232 233 184 232 281 282 233 281 330 331 282 330 379 380 331 379 428 429 380 428 477 478 429 477 526 527 478 526 575 576 527 575 624 625 576 624 673 674 625 673 722 723 674 722 771 772 723 771 6 7 772 105 135 136 104 135 184 185 136 184 233 234 185 233 282 283 234 282 331 332 283 331 380 381 332 380 429 430 381 429 478 479 430 478 527 528 479 527 576 577 528 576 625 626 577 625 674 675 626 674 723 724 675 723 772 773 724 772 7 8 773 104 136 137 103 136 185 186 137 185 234 235 186 234 283 284 235 283 332 333 284 332 381 382 333 381 430 431 382 430 479 480 431 479 528 529 480 528 577 578 529 577 626 627 578 626 675 676 627 675 724 725 676 724 773 774 725 773 8 9 774 103 137 138 102 137 186 187 138 186 235 236 187 235 284 285 236 284 333 334 285 333 382 383 334 382 431 432 383 431 480 481 432 480 529 530 481 529 578 579 530 578 627 628 579 627 676 677 628 676 725 726 677 725 774 775 726 774 9 10 775 102 138 139 101 138 187 188 139 187 236 237 188 236 285 286 237 285 334 335 286 334 383 384 335 383 432 433 384 432 481 482 433 481 530 531 482 530 579 580 531 579 628 629 580 628 677 678 629 677 726 727 678 726 775 776 727 775 10 11 776 101 139 140 100 139 188 189 140 188 237 238 189 237 286 287 238 286 335 336 287 335 384 385 336 384 433 434 385 433 482 483 434 482 531 532 483 531 580 581 532 580 629 630 581 629 678 679 630 678 727 728 679 727 776 777 728 776 11 12 777 100 140 141 99 140 189 190 141 189 238 239 190 238 287 288 239 287 336 337 288 336 385 386 337 385 434 435 386 434 483 484 435 483 532 533 484 532 581 582 533 581 630 631 582 630 679 680 631 679 728 729 680 728 777 778 729 777 12 13 778 99 141 142 98 141 190 191 142 190 239 240 191 239 288 289 240 288 337 338 289 337 386 387 338 386 435 436 387 435 484 485 436 484 533 534 485 533 582 583 534 582 631 632 583 631 680 681 632 680 729 730 681 729 778 779 730 778 13 14 779 98 142 143 97 142 191 192 143 191 240 241 192 240 289 290 241 289 338 339 290 338 387 388 339 387 436 437 388 436 485 486 437 485 534 535 486 534 583 584 535 583 632 633 584 632 681 682 633 681 730 731 682 730 779 780 731 779 14 15 780 97 143 144 96 143 192 193 144 192 241 242 193 241 290 291 242 290 339 340 291 339 388 389 340 388 437 438 389 437 486 487 438 486 535 536 487 535 584 585 536 584 633 634 585 633 682 683 634 682 731 732 683 731 780 781 732 780 15 16 781 96 144 145 111 144 193 194 145 193 242 243 194 242 291 292 243 291 340 341 292 340 389 390 341 389 438 439 390 438 487 488 439 487 536 537 488 536 585 586 537 585 634 635 586 634 683 684 635 683 732 733 684 732 781 782 733 781 16 17 782 111 145 146 112 145 194 195 146 194 243 244 195 243 292 293 244 292 341 342 293 341 390 391 342 390 439 440 391 439 488 489 440 488 537 538 489 537 586 587 538 586 635 636 587 635 684 685 636 684 733 734 685 733 782 783 734 782 17 18 783 112 146 147 113 146 195 196 147 195 244 245 196 244 293 294 245 293 342 343 294 342 391 392 343 391 440 441 392 440 489 490 441 489 538 539 490 538 587 588 539 587 636 637 588 636 685 686 637 685 734 735 686 734 783 784 735 783 18 19 784 113 147 148 114 147 196 197 148 196 245 246 197 245 294 295 246 294 343 344 295 343 392 393 344 392 441 442 393 441 490 491 442 490 539 540 491 539 588 589 540 588 637 638 589 637 686 687 638 686 735 736 687 735 784 785 736 784 19 20 785 114 148 149 115 148 197 198 149 197 246 247 198 246 295 296 247 295 344 345 296 344 393 394 345 393 442 443 394 442 491 492 443 491 540 541 492 540 589 590 541 589 638 639 590 638 687 688 639 687 736 737 688 736 785 786 737 785 20 21 786 115 149 150 116 149 198 199 150 198 247 248 199 247 296 297 248 296 345 346 297 345 394 395 346 394 443 444 395 443 492 493 444 492 541 542 493 541 590 591 542 590 639 640 591 639 688 689 640 688 737 738 689 737 786 787 738 786 21 22 787 116 150 151 117 150 199 200 151 199 248 249 200 248 297 298 249 297 346 347 298 346 395 396 347 395 444 445 396 444 493 494 445 493 542 543 494 542 591 592 543 591 640 641 592 640 689 690 641 689 738 739 690 738 787 788 739 787 22 23 788 117 151 152 118 151 200 201 152 200 249 250 201 249 298 299 250 298 347 348 299 347 396 397 348 396 445 446 397 445 494 495 446 494 543 544 495 543 592 593 544 592 641 642 593 641 690 691 642 690 739 740 691 739 788 789 740 788 23 24 789 118 152 153 119 152 201 202 153 201 250 251 202 250 299 300 251 299 348 349 300 348 397 398 349 397 446 447 398 446 495 496 447 495 544 545 496 544 593 594 545 593 642 643 594 642 691 692 643 691 740 741 692 740 789 790 741 789 24 25 790 119 153 154 120 153 202 203 154 202 251 252 203 251 300 301 252 300 349 350 301 349 398 399 350 398 447 448 399 447 496 497 448 496 545 546 497 545 594 595 546 594 643 644 595 643 692 693 644 692 741 742 693 741 790 791 742 790 25 26 791 120 154 155 121 154 203 204 155 203 252 253 204 252 301 302 253 301 350 351 302 350 399 400 351 399 448 449 400 448 497 498 449 497 546 547 498 546 595 596 547 595 644 645 596 644 693 694 645 693 742 743 694 742 791 792 743 791 26 27 792 121 155 156 122 155 204 205 156 204 253 254 205 253 302 303 254 302 351 352 303 351 400 401 352 400 449 450 401 449 498 499 450 498 547 548 499 547 596 597 548 596 645 646 597 645 694 695 646 694 743 744 695 743 792 793 744 792 27 28 793 122 156 157 123 156 205 206 157 205 254 255 206 254 303 304 255 303 352 353 304 352 401 402 353 401 450 451 402 450 499 500 451 499 548 549 500 548 597 598 549 597 646 647 598 646 695 696 647 695 744 745 696 744 793 794 745 793 28 29 794 123 157 158 124 157 206 207 158 206 255 256 207 255 304 305 256 304 353 354 305 353 402 403 354 402 451 452 403 451 500 501 452 500 549 550 501 549 598 599 550 598 647 648 599 647 696 697 648 696 745 746 697 745 794 795 746 794 29 30 795 124 158 159 125 158 207 208 159 207 256 257 208 256 305 306 257 305 354 355 306 354 403 404 355 403 452 453 404 452 501 502 453 501 550 551 502 550 599 600 551 599 648 649 600 648 697 698 649 697 746 747 698 746 795 796 747 795 30 31 796 125 159 160 126 159 208 209 160 208 257 258 209 257 306 307 258 306 355 356 307 355 404 405 356 404 453 454 405 453 502 503 454 502 551 552 503 551 600 601 552 600 649 650 601 649 698 699 650 698 747 748 699 747 796 797 748 796 31 32 797 126 160 161 127 160 209 210 161 209 258 259 210 258 307 308 259 307 356 357 308 356 405 406 357 405 454 455 406 454 503 504 455 503 552 553 504 552 601 602 553 601 650 651 602 650 699 700 651 699 748 749 700 748 797 798 749 797 32 33 798 127 161 162 128 161 210 211 162 210 259 260 211 259 308 309 260 308 357 358 309 357 406 407 358 406 455 456 407 455 504 505 456 504 553 554 505 553 602 603 554 602 651 652 603 651 700 701 652 700 749 750 701 749 798 799 750 798 33 34 799 128 162 163 129 162 211 212 163 211 260 261 212 260 309 310 261 309 358 359 310 358 407 408 359 407 456 457 408 456 505 506 457 505 554 555 506 554 603 604 555 603 652 653 604 652 701 702 653 701 750 751 702 750 799 800 751 799 34 35 800 129 163 164 81 163 212 213 164 212 261 262 213 261 310 311 262 310 359 360 311 359 408 409 360 408 457 458 409 457 506 507 458 506 555 556 507 555 604 605 556 604 653 654 605 653 702 703 654 702 751 752 703 751 800 801 752 800 35 36 801 81 164 165 95 164 213 214 165 213 262 263 214 262 311 312 263 311 360 361 312 360 409 410 361 409 458 459 410 458 507 508 459 507 556 557 508 556 605 606 557 605 654 655 606 654 703 704 655 703 752 753 704 752 801 802 753 801 36 37 802 95 165 166 94 165 214 215 166 214 263 264 215 263 312 313 264 312 361 362 313 361 410 411 362 410 459 460 411 459 508 509 460 508 557 558 509 557 606 607 558 606 655 656 607 655 704 705 656 704 753 754 705 753 802 803 754 802 37 38 803 94 166 167 93 166 215 216 167 215 264 265 216 264 313 314 265 313 362 363 314 362 411 412 363 411 460 461 412 460 509 510 461 509 558 559 510 558 607 608 559 607 656 657 608 656 705 706 657 705 754 755 706 754 803 804 755 803 38 39 804 93 167 168 92 167 216 217 168 216 265 266 217 265 314 315 266 314 363 364 315 363 412 413 364 412 461 462 413 461 510 511 462 510 559 560 511 559 608 609 560 608 657 658 609 657 706 707 658 706 755 756 707 755 804 805 756 804 39 40 805 92 168 169 91 168 217 218 169 217 266 267 218 266 315 316 267 315 364 365 316 364 413 414 365 413 462 463 414 462 511 512 463 511 560 561 512 560 609 610 561 609 658 659 610 658 707 708 659 707 756 757 708 756 805 806 757 805 40 41 806 91 169 170 90 169 218 219 170 218 267 268 219 267 316 317 268 316 365 366 317 365 414 415 366 414 463 464 415 463 512 513 464 512 561 562 513 561 610 611 562 610 659 660 611 659 708 709 660 708 757 758 709 757 806 807 758 806 41 42 807 90 170 171 89 170 219 220 171 219 268 269 220 268 317 318 269 317 366 367 318 366 415 416 367 415 
[...]
      <PointData Vectors="UU" ><DataArray Name="UU" NumberOfComponents="3" type="Float32" format="ascii" >
 -1.9984e-15 0 0 3.4972e-15 0 0 4.24231e-14 0 0 1.16436e-13 0 0 0 0 0 -9.83311e-16 0 0 3.89834e-15 0 0 2.41048e-15 0 0 2.38038e-15 0 0 2.20628e-14 0 0 -9.24613e-16 0 0 -2.72788e-15 0 0 1.78679e-15 0 0 -8.76976e-16 0 0 0 0 0 5.0632e-14 0 0 8.28024e-16 0 0 -8.12962e-16 0 0 3.9944e-16 0 0 3.92987e-16 0 0 0 0 0 3.81994e-16 0 0 0 0 0 0 0 0 2.10786e-13 0 0 0 0 0 1.10939e-15 0 0 5.18436e-15 0 0 0 0 0 0 0 0 0 0 0 0 0 0 3.87075e-16 0 0 1.3949e-13 0 0 0 0 0 1.21945e-15 0 0 0 0 0 8.43962e-16 0 0 -8.60382e-16 0 0 4.38486e-16 0 0 -1.78656e-15 0 0 -1.81855e-15 0 0 5.82488e-14 0 0 -9.3881e-16 0 0 -2.8561e-15 0 0 1.92801e-15 0 0 1.94884e-15 0 0 2.45798e-15 0 0 -2.97033e-15 0 0 1.4927e-15 0 0 -3.99276e-15 0 0 1.5 0 0 1.5 0 0 1.5 0 0 1.5 0 0 1.5 0 0 1.5 0 0 1.5 0 0 1.5 0 0 1.5 0 0 1.5 0 0 1.5 0 0 1.5 0 0 1.5 0 0 1.5 0 0 1.5 0 0 1.5 0 0 1.5 0 0 1.5 0 0 1.5 0 0 1.5 0 0 1.5 0 0 1.5 0 0 1.5 0 0 1.5 0 0 1.5 0 0 1.5 0 0 1.5 0 0 1.5 0 0 1.5 0 0 1.5 0 0 0 0 0 1.49626 0 0 1.48443 0 0 1.46354 0 0 1.43254 0 0 1.39025 0 0 1.3354 0 0 1.26661 0 0 1.18237 0 0 1.08101 0 0 0.960723 0 0 0.81955 0 0 0.655338 0 0 0.465747 0 0 0.248227 0 0 0 0 0 0.248227 0 0 0.465747 0 0 0.655338 0 0 0.81955 0 0 0.960723 0 0 1.08101 0 0 1.18237 0 0 1.26661 0 0 1.3354 0 0 1.39025 0 0 1.43254 0 0 1.46354 0 0 1.48443 0 0 1.49626 0 0 1.41982e-19 0 0 -5.40386e-20 0 0 1.45559e-19 0 0 1.58981e-19 0 0 -6.19971e-16 0 0 -2.9839e-15 0 0 -3.60637e-16 0 0 7.46977e-20 0 0 -1.75983e-18 0 0 -1.52076e-18 0 0 -1.1237e-19 0 0 -4.46668e-16 0 0 -2.09415e-15 0 0 -3.82524e-15 0 0 -8.29139e-20 0 0 3.24353e-20 0 0 -1.28783e-19 0 0 1.62986e-19 0 0 -3.32195e-15 0 0 1.49629 0 0 1.48459 0 0 1.46408 0 0 1.43406 0 0 1.39251 0 0 1.33977 0 0 1.27213 0 0 1.19084 0 0 1.09309 0 0 0.979254 0 0 0.849813 0 0 0.701223 0 0 0.536155 0 0 0.359258 0 0 0.226051 0 0 0.159376 0 0 0.135943 0 0 0.128641 0 0 0.122841 0 0 0.119687 0 0 0.121026 0 0 0.119307 0 0 0.120335 0 0 0.123026 0 0 0.122782 0 0 0.123026 0 0 0.120435 0 0 0.119358 0 0 0.120946 0 0 0.118736 0 0 0.122419 0 0 0.127397 0 0 0.136819 0 0 0.159402 0 0 0.227539 0 0 0.361442 0 0 0.541423 0 0 0.706679 0 0 0.8544 0 0 0.983667 0 0 1.09519 0 0 1.19174 0 0 1.27117 0 0 1.33773 0 0 1.39128 0 0 1.43281 0 0 1.46346 0 0 1.48431 0 0 1.49622 0 0 1.4964 0 0 1.4851 0 0 1.4652 0 0 1.43569 0 0 1.39599 0 0 1.34409 0 0 1.27979 0 0 1.2018 0 0 1.11058 0 0 1.00672 0 0 0.890035 0 0 0.759422 0 0 0.620591 0 0 0.485821 0 0 0.378276 0 0 0.306587 0 0 0.267422 0 0 0.250041 0 0 0.239292 0 0 0.233191 0 0 0.22978 0 0 0.230985 0 0 0.229776 0 0 0.234214 0 0 0.234198 0 0 0.2352 0 0 0.232755 0 0 0.231195 0 0 0.23071 0 0 0.231531 0 0 0.237332 0 0 0.249147 0 0 0.267148 0 0 0.307121 0 0 0.380537 0 0 0.489784 0 0 0.62646 0 0 0.767305 0 0 0.897517 0 0 1.01378 0 0 1.11553 0 0 1.20335 0 0 1.27879 0 0 1.34215 0 0 1.3937 0 0 1.43407 0 0 1.46421 0 0 1.48457 0 0 1.49627 0 0 1.49651 0 0 1.4857 0 0 1.46651 0 0 1.4384 0 0 1.40014 0 0 1.35101 0 0 1.29016 0 0 1.21712 0 0 1.13313 0 0 1.03923 0 0 0.93592 0 0 0.823869 0 0 0.706282 0 0 0.595583 0 0 0.502134 0 0 0.433083 0 0 0.389094 0 0 0.364239 0 0 0.349956 0 0 0.339253 0 0 0.333511 0 0 0.332046 0 0 0.332388 0 0 0.33671 0 0 0.336739 0 0 0.337561 0 0 0.336183 0 0 0.335422 0 0 0.334281 0 0 0.337161 0 0 0.347236 0 0 0.363233 0 0 0.389146 0 0 0.434642 0 0 0.504737 0 0 0.599164 0 0 0.712361 0 0 0.830297 0 0 0.94357 0 0 1.04722 0 0 1.13905 0 0 1.21933 0 0 1.2891 0 0 1.34827 0 0 1.39737 0 0 1.4364 0 0 1.46547 0 0 1.48522 0 0 1.49637 0 0 1.49671 0 0 1.4863 0 0 1.46798 0 0 1.44141 0 0 1.40517 0 0 1.35902 0 0 1.3022 0 0 1.23473 0 0 1.15898 0 0 1.07495 0 0 0.982945 0 0 0.885923 0 0 0.786681 0 0 0.690817 0 0 0.608401 0 0 0.544502 0 0 0.498896 0 0 0.470607 0 0 0.452244 0 0 0.438622 0 0 0.430427 0 0 0.427349 0 0 0.42726 0 0 0.428971 0 0 0.433936 0 0 0.432091 0 0 0.431161 0 0 0.430152 0 0 0.431318 0 0 0.437334 0 0 0.450435 0 0 0.469621 0 0 0.499369 0 0 0.545514 0 0 0.611175 0 0 0.6949 0 0 0.792612 0 0 0.892389 0 0 0.990288 0 0 1.08179 0 0 1.16421 0 0 1.23713 0 0 1.30152 0 0 1.35674 0 0 1.40283 0 0 1.43936 0 0 1.467 0 0 1.48582 0 0 1.49656 0 0 1.49685 0 0 1.48698 0 0 1.46962 0 0 1.44451 0 0 1.41079 0 0 1.36773 0 0 1.31515 0 0 1.25424 0 0 1.18539 0 0 1.11016 0 0 1.03008 0 0 0.945963 0 0 0.860815 0 0 0.775459 0 0 0.701774 0 0 0.642733 0 0 0.598569 0 0 0.568284 0 0 0.547051 0 0 0.532309 0 0 0.520906 0 0 0.516246 0 0 0.514945 0 0 0.516111 0 0 0.519162 0 0 0.519743 0 0 0.519383 0 0 0.519132 0 0 0.521559 0 0 0.530109 0 0 0.546729 0 0 0.56794 0 0 0.598642 0 0 0.643535 0 0 0.704854 0 0 0.778972 0 0 0.864857 0 0 0.951737 0 0 1.03692 0 0 1.1164 0 0 1.18989 0 0 1.25655 0 0 1.31611 0 0 1.36594 0 0 1.40806 0 0 1.44256 0 0 1.46851 0 0 1.48642 0 0 1.4967 0 0 1.49705 0 0 1.48769 0 0 1.47153 0 0 1.44859 0 0 1.4168 0 0 1.37687 0 0 1.32942 0 0 1.27438 0 0 1.21316 0 0 1.1451 0 0 1.07373 0 0 1.00089 0 0 0.924774 0 0 0.85099 0 0 0.784612 0 0 0.729556 0 0 0.688513 0 0 0.658096 0 0 0.635547 0 0 0.618286 0 0 0.606282 0 0 0.598831 0 0 0.596397 0 0 0.596631 0 0 0.599135 0 0 0.600277 0 0 0.602527 0 0 0.601432 0 0 0.605627 0 0 0.617014 0 0 0.634449 0 0 0.657915 0 0 0.68851 0 0 0.731385 0 0 0.787039 0 0 0.854415 0 0 0.93051 0 0 1.00532 0 0 1.07989 0 0 1.15067 0 0 1.21608 0 0 1.27615 0 0 1.32902 0 0 1.37504 0 0 1.41408 0 0 1.44578 0 0 1.47025 0 0 1.4872 0 0 1.49691 0 0 1.49725 0 0 1.48852 0 0 1.47351 0 0 1.45236 0 0 1.42312 0 0 1.38716 0 0 1.34447 0 0 1.29401 0 0 1.23924 0 0 1.17927 0 0 1.115 0 0 1.05022 0 0 0.98566 0 0 0.917724 0 0 0.857881 0 0 0.808912 0 0 0.769865 0 0 0.740271 0 0 0.717007 0 0 0.69876 0 0 0.684511 0 0 0.675715 0 0 0.671935 0 0 0.671313 0 0 0.67338 0 0 0.676637 0 0 0.675945 0 0 0.678179 0 0 0.684645 0 0 0.697688 0 0 0.716039 0 0 0.739361 0 0 0.769772 0 0 0.8097 0 0 0.860983 0 0 0.921188 0 0 0.98857 0 0 1.05563 0 0 1.12041 0 0 1.18301 0 0 1.24115 0 0 1.29473 0 0 1.34264 0 0 1.38433 0 0 1.42015 0 0 1.44939 0 0 1.47191 0 0 1.4878 0 0 1.49702 0 0 1.49744 0 0 1.48936 0 0 1.47551 0 0 1.45603 0 0 1.42957 0 0 1.39727 0 0 1.35779 0 0 1.3132 0 0 1.26319 0 0 1.21002 0 0 1.15384 0 0 1.09665 0 0 1.03864 0 0 0.978913 0 0 0.925268 0 0 0.879902 0 0 0.843891 0 0 0.814783 0 0 0.791062 0 0 0.772134 0 0 0.758106 0 0 0.747983 0 0 0.743479 0 0 0.74104 0 0 0.743855 0 0 0.746177 0 0 0.746598 0 0 0.750253 0 0 0.758319 0 0 0.772394 0 0 0.791304 0 0 0.814496 0 0 0.843998 0 0 0.880381 0 0 0.927001 0 0 0.981309 0 0 1.04165 0 0 1.1004 0 0 1.15842 0 0 1.21286 0 0 1.26486 0 0 1.31273 0 0 1.3558 0 0 1.39415 0 0 1.4262 0 0 1.45304 0 0 1.47384 0 0 1.48862 0 0 1.49726 0 0 1.49766 0 0 1.49028 0 0 1.47748 0 0 1.45934 0 0 1.43583 0 0 1.4068 0 0 1.37132 0 0 1.33081 0 0 1.28684 0 0 1.2387 0 0 1.1897 0 0 1.13878 0 0 1.08675 0 0 1.03374 0 0 0.985446 0 0 0.945014 0 0 0.911846 0 0 0.883294 0 0 0.859754 0 0 0.841669 0 0 0.826247 0 0 0.817703 0 0 0.810425 0 0 0.808644 0 0 0.807917 0 0 0.810245 0 0 0.813195 0 0 0.817939 0 0 0.828338 0 0 0.841678 0 0 0.859381 0 0 0.883256 0 0 0.911537 0 0 0.94481 0 0 0.986867 0 0 1.03545 0 0 1.08929 0 0 1.14179 0 0 1.19241 0 0 1.242 0 0 1.28766 0 0 1.33038 0 0 1.36898 0 0 1.40298 0 0 1.43268 0 0 1.45667 0 0 1.47581 0 0 1.48944 0 0 1.49744 0 0 1.49786 0 0 1.49113 0 0 1.4795 0 0 1.46318 0 0 1.44155 0 0 1.41573 0 0 1.38361 0 0 1.34761 0 0 1.30789 0 0 1.266 0 0 1.22252 0 0 1.17714 0 0 1.13105 0 0 1.08347 0 0 1.04061 0 0 1.00382 0 0 0.973323 0 0 0.946128 0 0 0.923102 0 0 0.904161 0 0 0.890893 0 0 0.880514 0 0 0.875177 0 0 0.870402 0 0 0.871368 0 0 0.873264 0 0 0.87648 0 0 0.882143 0 0 0.891914 0 0 0.905286 0 0 0.923701 0 0 0.945482 0 0 0.973215 0 0 1.00358 0 0 1.04137 0 0 1.08506 0 0 1.13254 0 0 1.17866 0 0 1.22423 0 0 1.26794 0 0 1.30885 0 0 1.34693 0 0 1.38099 0 0 1.41201 0 0 1.43832 0 0 1.46056 0 0 1.47794 0 0 1.49036 0 0 1.49762 0 0 1.49804 0 0 1.49197 0 0 1.48147 0 0 1.46657 0 0 1.44729 0 0 1.42374 0 0 1.39493 0 0 1.36303 0 0 1.328 0 0 1.2916 0 0 1.2531 0 0 1.2122 0 0 1.17068 0 0 1.12926 0 0 1.09077 0 0 1.05822 0 0 1.02949 0 0 1.00392 0 0 0.981902 0 0 0.963699 0 0 0.949398 0 0 0.940184 0 0 0.932943 0 0 0.927985 0 0 0.928286 0 0 0.929947 0 0 0.936828 0 0 0.940673 0 0 0.950674 0 0 0.965269 0 0 0.981981 0 0 1.00366 0 0 1.02943 0 0 1.05804 0 0 1.09133 0 0 1.13055 0 0 1.17189 0 0 1.21304 0 0 1.25347 0 0 1.29269 0 0 1.32868 0 0 1.36228 0 0 1.39307 0 0 1.42013 0 0 1.44418 0 0 1.46427 0 0 1.47996 0 0 1.49123 0 0 1.49789 0 0 1.4982 0 0 1.49262 0 0 1.4832 0 0 1.46957 0 0 1.45203 0 0 1.43059 0 0 1.40558 0 0 1.37712 0 0 1.3468 0 0 1.31497 0 0 1.2804 0 0 1.24472 0 0 1.20717 0 0 1.17097 0 0 1.13738 0 0 1.10752 0 0 1.08143 0 0 1.05768 0 0 1.03677 0 0 1.01921 0 0 1.00512 0 0 0.994088 0 0 0.986413 0 0 0.982644 0 0 0.98118 0 0 0.984736 0 0 0.988878 0 0 0.99605 0 0 1.00604 0 0 1.01938 0 0 1.0369 0 0 1.05695 0 0 1.08096 0 0 1.10775 0 0 1.13795 0 0 1.17213 0 0 1.20841 0 0 1.24482 0 0 1.28067 0 0 1.31452 0 0 1.34697 0 0 1.37672 0 0 1.40388 0 0 1.42837 0 0 1.44969 0 0 1.46772 0 0 1.482 0 0 1.49201 0 0 1.49803 0 0 1.49831 0 0 1.49325 0 0 1.48455 0 0 1.47237 0 0 1.45658 0 0 1.43721 0 0 1.41484 0 0 1.39033 0 0 1.36346 0 0 1.33688 0 0 1.3053 0 0 1.27315 0 0 1.24163 0 0 1.20931 0 0 1.17962 0 0 1.153 0 0 1.129 0 0 1.10737 0 0 1.08778 0 0 1.07049 0 0 1.05653 0 0 1.04533 0 0 1.03733 0 0 1.03284 0 0 1.03141 0 0 1.0355 0 0 1.04009 0 0 1.04689 0 0 1.05722 0 0 1.0704 0 0 1.08671 0 0 1.10685 0 0 1.1288 0 0 1.15305 0 0 1.17994 0 0 1.21016 0 0 1.2418 0 0 1.27362 0 0 1.30531 0 0 1.33507 0 0 1.36366 0 0 1.38987 0 0 1.41427 0 0 1.43598 0 0 1.45501 0 0 1.47106 0 0 1.48371 0 0 1.49288 0 0 1.49818 0 0 1.49841 0 0 1.49367 0 0 1.48582 0 0 1.47478 0 0 1.46066 0 0 1.44385 0 0 1.42383 0 0 1.40192 0 0 1.37904 0 0 1.35368 0 0 1.32763 0 0 1.30022 0 0 1.27195 0 0 1.24461 0 0 1.21873 0 0 1.19468 0 0 1.17251 0 0 1.15247 0 0 1.13402 0 0 1.11779 0 0 1.10391 0 0 1.09318 0 0 1.08537 0 0 1.08041 0 0 1.07953 0 0 1.08122 0 0 1.08676 0 0 1.09441 0 0 1.10436 0 0 1.1174 0 0 1.13355 0 0 1.15191 0 0 1.17269 0 0 1.19471 0 0 1.21879 0 0 1.24506 0 0 1.27241 0 0 1.30021 0 0 1.32707 0 0 1.35359 0 0 1.3789 0 0 1.40176 0 0 1.42327 0 0 1.44296 0 0 1.45988 0 0 1.47423 0 0 1.48536 0 0 1.49344 0 0 1.4984 0 0 4.49186e-14 0 0 1.13948e-13 0 0 0 0 0 3.44159e-15 0 0 -1.94917e-15 0 0 0 0 0 0 0 0 2.30017e-14 0 0 2.31153e-15 0 0 -9.09294e-16 0 0 -8.93394e-16 0 0 1.75395e-15 0 0 0 0 0 5.14759e-14 0 0 3.72611e-15 0 0 4.06481e-16 0 0 0 0 0 -7.85973e-16 0 0 0 0 0 0 0 0 0 0 0 0 0 0 2.10786e-13 0 0 0 0 0 1.10939e-15 0 0 5.55467e-15 0 0 0 0 0 0 0 0 0 0 0 3.81953e-16 0 0 3.87075e-16 0 0 1.3949e-13 0 0 0 0 0 0 0 0 0 0 0 0 0 0 0 0 0 -1.75395e-15 0 0 0 0 0 -2.72783e-15 0 0 5.31636e-14 0 0 0 0 0 9.52034e-16 0 0 -2.89201e-15 0 0 -1.94884e-15 0 0 3.44118e-15 0 0 -9.9011e-16 0 0 -9.95134e-16 0 0 0 0 0 -1.32884e-26 0 0 1.6263e-19 0 0 -2.33893e-19 0 0 -8.69766e-20 0 0 3.77441e-20 0 0 -1.10909e-20 0 0 -6.2012e-16 0 0 -2.98403e-15 0 0 -3.60727e-16 0 0 8.94435e-20 0 0 -1.60815e-18 0 0 -1.56668e-18 0 0 -1.06453e-19 0 0 -4.46945e-16 0 0 -2.09415e-15 0 0 -3.82537e-15 0 0 -2.75002e-20 0 0 -3.05153e-20 0 0 -5.45148e-20 0 0 1.49428e-19 0 0 -3.32184e-15 0 0 0.248227 0 0 0.465747 0 0 0.655338 0 0 0.81955 0 0 0.960723 0 0 1.08101 0 0 1.18237 0 0 1.26661 0 0 1.3354 0 0 1.39025 0 0 1.43254 0 0 1.46354 0 0 1.48443 0 0 1.49626 0 0 1.49626 0 0 1.48443 0 0 1.46354 0 0 1.43254 0 0 1.39025 0 0 1.3354 0 0 1.26661 0 0 1.18237 0 0 1.08101 0 0 0.960723 0 0 0.81955 0 0 0.655338 0 0 0.465747 0 0 0.248227 0 0 1.49629 0 0 1.48459 0 0 1.46408 0 0 1.43406 0 0 1.39251 0 0 1.33977 0 0 1.27213 0 0 1.19084 0 0 1.09309 0 0 0.979254 0 0 0.849813 0 0 0.701223 0 0 0.536155 0 0 0.359258 0 0 0.226051 0 0 0.159376 0 0 0.135943 0 0 0.128641 0 0 0.122841 0 0 0.119687 0 0 0.121026 0 0 0.119307 0 0 0.120335 0 0 0.123026 0 0 0.122782 0 0 0.123026 0 0 0.120435 0 0 0.119358 0 0 0.120946 0 0 0.118736 0 0 0.122419 0 0 0.127397 0 0 0.136819 0 0 0.159402 0 0 0.227539 0 0 0.361442 0 0 0.541423 0 0 0.706679 0 0 0.8544 0 0 0.983667 0 0 1.09519 0 0 1.19174 0 0 1.27117 0 0 1.33773 0 0 1.39128 0 0 1.43281 0 0 1.46346 0 0 1.48431 0 0 1.49622 0 0 1.4964 0 0 1.4851 0 0 1.4652 0 0 1.43569 0 0 1.39599 0 0 1.34409 0 0 1.27979 0 0 1.2018 0 0 1.11058 0 0 1.00672 0 0 0.890035 0 0 0.759422 0 0 0.620591 0 0 0.485821 0 0 0.378276 0 0 0.306587 0 0 0.267422 0 0 0.250041 0 0 0.239292 0 0 0.233191 0 0 0.22978 0 0 0.230985 0 0 0.229776 0 0 0.234214 0 0 0.234198 0 0 0.2352 0 0 0.232755 0 0 0.231195 0 0 0.23071 0 0 0.231531 0 0 0.237332 0 0 0.249147 0 0 0.267148 0 0 0.307121 0 0 0.380537 0 0 0.489784 0 0 0.62646 0 0 0.767305 0 0 0.897517 0 0 1.01378 0 0 1.11553 0 0 1.20335 0 0 1.27879 0 0 1.34215 0 0 1.3937 0 0 1.43407 0 0 1.46421 0 0 1.48457 0 0 1.49627 0 0 1.49651 0 0 1.4857 0 0 1.46651 0 0 1.4384 0 0 1.40014 0 0 1.35101 0 0 1.29016 0 0 1.21712 0 0 1.13313 0 0 1.03923 0 0 0.93592 0 0 0.823869 0 0 0.706282 0 0 0.595583 0 0 0.502134 0 0 0.433083 0 0 0.389094 0 0 0.364239 0 0 0.349956 0 0 0.339253 0 0 0.333511 0 0 0.332046 0 0 0.332388 0 0 0.33671 0 0 0.336739 0 0 0.337561 0 0 0.336183 0 0 0.335422 0 0 0.334281 0 0 0.337161 0 0 0.347236 0 0 0.363233 0 0 0.389146 0 0 0.434642 0 0 0.504737 0 0 0.599164 0 0 0.712361 0 0 0.830297 0 0 0.94357 0 0 1.04722 0 0 1.13905 0 0 1.21933 0 0 1.2891 0 0 1.34827 0 0 1.39737 0 0 1.4364 0 0 1.46547 0 0 1.48522 0 0 1.49637 0 0 1.49671 0 0 1.4863 0 0 1.46798 0 0 1.44141 0 0 1.40517 0 0 1.35902 0 0 1.3022 0 0 1.23473 0 0 1.15898 0 0 1.07495 0 0 0.982945 0 0 0.885923 0 0 0.786681 0 0 0.690817 0 0 0.608401 0 0 0.544502 0 0 0.498896 0 0 0.470607 0 0 0.452244 0 0 0.438622 0 0 0.430427 0 0 0.427349 0 0 0.42726 0 0 0.428971 0 0 0.433936 0 0 0.432091 0 0 0.431161 0 0 0.430152 0 0 0.431318 0 0 0.437334 0 0 0.450435 0 0 0.469621 0 0 0.499369 0 0 0.545514 0 0 0.611175 0 0 0.6949 0 0 0.792612 0 0 0.892389 0 0 0.990288 0 0 1.08179 0 0 1.16421 0 0 1.23713 0 0 1.30152 0 0 1.35674 0 0 1.40283 0 0 1.43936 0 0 1.467 0 0 1.48582 0 0 1.49656 0 0 1.49685 0 0 1.48698 0 0 1.46962 0 0 1.44451 0 0 1.41079 0 0 1.36773 0 0 1.31515 0 0 1.25424 0 0 1.18539 0 0 1.11016 0 0 1.03008 0 0 0.945963 0 0 0.860815 0 0 0.775459 0 0 0.701774 0 0 0.642733 0 0 0.598569 0 0 0.568284 0 0 0.547051 0 0 0.532309 0 0 0.520906 0 0 0.516246 0 0 0.514945 0 0 0.516111 0 0 0.519162 0 0 0.519743 0 0 0.519383 0 0 0.519132 0 0 0.521559 0 0 0.530109 0 0 0.546729 0 0 0.56794 0 0 0.598642 0 0 0.643535 0 0 0.704854 0 0 0.778972 0 0 0.864857 0 0 0.951737 0 0 1.03692 0 0 1.1164 0 0 1.18989 0 0 1.25655 0 0 1.31611 0 0 1.36594 0 0 1.40806 0 0 1.44256 0 0 1.46851 0 0 1.48642 0 0 1.4967 0 0 1.49705 0 0 1.48769 0 0 1.47153 0 0 1.44859 0 0 1.4168 0 0 1.37687 0 0 1.32942 0 0 1.27438 0 0 1.21316 0 0 1.1451 0 0 1.07373 0 0 1.00089 0 0 0.924774 0 0 0.85099 0 0 0.784612 0 0 0.729556 0 0 0.688513 0 0 0.658096 0 0 0.635547 0 0 0.618286 0 0 0.606282 0 0 0.598831 0 0 0.596397 0 0 0.596631 0 0 0.599135 0 0 0.600277 0 0 0.602527 0 0 0.601432 0 0 0.605627 0 0 0.617014 0 0 0.634449 0 0 0.657915 0 0 0.68851 0 0 0.731385 0 0 0.787039 0 0 0.854415 0 0 0.93051 0 0 1.00532 0 0 1.07989 0 0 1.15067 0 0 1.21608 0 0 1.27615 0 0 1.32902 0 0 1.37504 0 0 1.41408 0 0 1.44578 0 0 1.47025 0 0 1.4872 0 0 1.49691 0 0 1.49725 0 0 1.48852 0 0 1.47351 0 0 1.45236 0 0 1.42312 0 0 1.38716 0 0 1.34447 0 0 1.29401 0 0 1.23924 0 0 1.17927 0 0 1.115 0 0 1.05022 0 0 0.98566 0 0 0.917724 0 0 0.857881 0 0 0.808912 0 0 0.769865 0 0 0.740271 0 0 0.717007 0 0 0.69876 0 0 0.684511 0 0 0.675715 0 0 0.671935 0 0 0.671313 0 0 0.67338 0 0 0.676637 0 0 0.675945 0 0 0.678179 0 0 0.684645 0 0 0.697688 0 0 0.716039 0 0 0.739361 0 0 0.769772 0 0 0.8097 0 0 0.860983 0 0 0.921188 0 0 0.98857 0 0 1.05563 0 0 1.12041 0 0 1.18301 0 0 1.24115 0 0 1.29473 0 0 1.34264 0 0 1.38433 0 0 1.42015 0 0 1.44939 0 0 1.47191 0 0 1.4878 0 0 1.49702 0 0 1.49744 0 0 1.48936 0 0 1.47551 0 0 1.45603 0 0 1.42957 0 0 1.39727 0 0 1.35779 0 0 1.3132 0 0 1.26319 0 0 1.21002 0 0 1.15384 0 0 1.09665 0 0 1.03864 0 0 0.978913 0 0 0.925268 0 0 0.879902 0 0 0.843891 0 0 0.814783 0 0 0.791062 0 0 0.772134 0 0 0.758106 0 0 0.747983 0 0 0.743479 0 0 0.74104 0 0 0.743855 0 0 0.746177 0 0 0.746598 0 0 0.750253 0 0 0.758319 0 0 0.772394 0 0 0.791304 0 0 0.814496 0 0 0.843998 0 0 0.880381 0 0 0.927001 0 0 0.981309 0 0 1.04165 0 0 1.1004 0 0 1.15842 0 0 1.21286 0 0 1.26486 0 0 1.31273 0 0 1.3558 0 0 1.39415 0 0 1.4262 0 0 1.45304 0 0 1.47384 0 0 1.48862 0 0 1.49726 0 0 1.49766 0 0 1.49028 0 0 1.47748 0 0 1.45934 0 0 1.43583 0 0 1.4068 0 0 1.37132 0 0 1.33081 0 0 1.28684 0 0 1.2387 0 0 1.1897 0 0 1.13878 0 0 1.08675 0 0 1.03374 0 0 0.985446 0 0 0.945014 0 0 0.911846 0 0 0.883294 0 0 0.859754 0 0 0.841669 0 0 0.826247 0 0 0.817703 0 0 0.810425 0 0 0.808644 0 0 0.807917 0 0 0.810245 0 0 0.813195 0 0 0.817939 0 0 0.828338 0 0 0.841678 0 0 0.859381 0 0 0.883256 0 0 0.911537 0 0 0.94481 0 0 0.986867 0 0 1.03545 0 0 1.08929 0 0 1.14179 0 0 1.19241 0 0 1.242 0 0 1.28766 0 0 1.33038 0 0 1.36898 0 0 1.40298 0 0 1.43268 0 0 1.45667 0 0 1.47581 0 0 1.48944 0 0 1.49744 0 0 1.49786 0 0 1.49113 0 0 1.4795 0 0 1.46318 0 0 1.44155 0 0 1.41573 0 0 1.38361 0 0 1.34761 0 0 1.30789 0 0 1.266 0 0 1.22252 0 0 1.17714 0 0 1.13105 0 0 1.08347 0 0 1.04061 0 0 1.00382 0 0 0.973323 0 0 0.946128 0 0 0.923102 0 0 0.904161 0 0 0.890893 0 0 0.880514 0 0 0.875177 0 0 0.870402 0 0 0.871368 0 0 0.873264 0 0 0.87648 0 0 0.882143 0 0 0.891914 0 0 0.905286 0 0 0.923701 0 0 0.945482 0 0 0.973215 0 0 1.00358 0 0 1.04137 0 0 1.08506 0 0 1.13254 0 0 1.17866 0 0 1.22423 0 0 1.26794 0 0 1.30885 0 0 1.34693 0 0 1.38099 0 0 1.41201 0 0 1.43832 0 0 1.46056 0 0 1.47794 0 0 1.49036 0 0 1.49762 0 0 1.49804 0 0 1.49197 0 0 1.48147 0 0 1.46657 0 0 1.44729 0 0 1.42374 0 0 1.39493 0 0 1.36303 0 0 1.328 0 0 1.2916 0 0 1.2531 0 0 1.2122 0 0 1.17068 0 0 1.12926 0 0 1.09077 0 0 1.05822 0 0 1.02949 0 0 1.00392 0 0 0.981902 0 0 0.963699 0 0 0.949398 0 0 0.940184 0 0 0.932943 0 0 0.927985 0 0 0.928286 0 0 0.929947 0 0 0.936828 0 0 0.940673 0 0 0.950674 0 0 0.965269 0 0 0.981981 0 0 1.00366 0 0 1.02943 0 0 1.05804 0 0 1.09133 0 0 1.13055 0 0 1.17189 0 0 1.21304 0 0 1.25347 0 0 1.29269 0 0 1.32868 0 0 1.36228 0 0 1.39307 0 0 1.42013 0 0 1.44418 0 0 1.46427 0 0 1.47996 0 0 1.49123 0 0 1.49789 0 0 1.4982 0 0 1.49262 0 0 1.4832 0 0 1.46957 0 0 1.45203 0 0 1.43059 0 0 1.40558 0 0 1.37712 0 0 1.3468 0 0 1.31497 0 0 1.2804 0 0 1.24472 0 0 1.20717 0 0 1.17097 0 0 1.13738 0 0 1.10752 0 0 1.08143 0 0 1.05768 0 0 1.03677 0 0 1.01921 0 0 1.00512 0 0 0.994088 0 0 0.986413 0 0 0.982644 0 0 0.98118 0 0 0.984736 0 0 0.988878 0 0 0.99605 0 0 1.00604 0 0 1.01938 0 0 1.0369 0 0 1.05695 0 0 1.08096 0 0 1.10775 0 0 1.13795 0 0 1.17213 0 0 1.20841 0 0 1.24482 0 0 1.28067 0 0 1.31452 0 0 1.34697 0 0 1.37672 0 0 1.40388 0 0 1.42837 0 0 1.44969 0 0 1.46772 0 0 1.482 0 0 1.49201 0 0 1.49803 0 0 1.49831 0 0 1.49325 0 0 1.48455 0 0 1.47237 0 0 1.45658 0 0 1.43721 0 0 1.41484 0 0 1.39033 0 0 1.36346 0 0 1.33688 0 0 1.3053 0 0 1.27315 0 0 1.24163 0 0 1.20931 0 0 1.17962 0 0 1.153 0 0 1.129 0 0 1.10737 0 0 1.08778 0 0 1.07049 0 0 1.05653 0 0 1.04533 0 0 1.03733 0 0 1.03284 0 0 1.03141 0 0 1.0355 0 0 1.04009 0 0 1.04689 0 0 1.05722 0 0 1.0704 0 0 1.08671 0 0 1.10685 0 0 1.1288 0 0 1.15305 0 0 1.17994 0 0 1.21016 0 0 1.2418 0 0 1.27362 0 0 1.30531 0 0 1.33507 0 0 1.36366 0 0 1.38987 0 0 1.41427 0 0 1.43598 0 0 1.45501 0 0 1.47106 0 0 1.48371 0 0 1.49288 0 0 1.49818 0 0 1.49841 0 0 1.49367 0 0 1.48582 0 0 1.47478 0 0 1.46066 0 0 1.44385 0 0 1.42383 0 0 1.40192 0 0 1.37904 0 0 1.35368 0 0 1.32763 0 0 1.30022 0 0 1.27195 0 0 1.24461 0 0 1.21873 0 0 1.19468 0 0 1.17251 0 0 1.15247 0 0 1.13402 0 0 1.11779 0 0 1.10391 0 0 1.09318 0 0 1.08537 0 0 1.08041 0 0 1.07953 0 0 1.08122 0 0 1.08676 0 0 1.09441 0 0 1.10436 0 0 1.1174 0 0 1.13355 0 0 1.15191 0 0 1.17269 0 0 1.19471 0 0 1.21879 0 0 1.24506 0 0 1.27241 0 0 1.30021 0 0 1.32707 0 0 1.35359 0 0 1.3789 0 0 1.40176 0 0 1.42327 0 0 1.44296 0 0 1.45988 0 0 1.47423 0 0 1.48536 0 0 1.49344 0 0 1.4984 0 0 0 0 0 8.13152e-20 0 0 0.248227 0 0 0.465747 0 0 0.655338 0 0 0.81955 0 0 0.960723 0 0 1.08101 0 0 1.18237 0 0 1.26661 0 0 1.3354 0 0 1.39025 0 0 1.43254 0 0 1.46