<?xml version="1.0"?>

<VTKFile type="UnstructuredGrid" >
  <UnstructuredGrid>
    <Piece NumberOfPoints="1061"  NumberOfCells="2000" >
      <Cells><DataArray Name="connectivity" type="Int32" format="ascii" >
 561 0 11 561 11 12 561 12 1 561 1 0 562 1 12 562 12 13 562 13 2 562 2 1 563 2 13 563 13 14 563 14 3 563 3 2 564 3 14 564 14 15 564 15 4 564 4 3 565 4 15 565 15 16 565 16 5 565 5 4 566 5 16 566 16 17 566 17 6 566 6 5 567 6 17 567 17 18 567 18 7 567 7 6 568 7 18 568 18 19 568 19 8 568 8 7 569 8 19 569 19 20 569 20 9 569 9 8 570 9 20 570 20 21 570 21 10 570 10 9 571 11 22 571 22 23 571 23 12 571 12 11 572 12 23 572 23 24 572 24 13 572 13 12 573 13 24 573 24 25 573 25 14 573 14 13 574 14 25 574 25 26 574 26 15 574 15 14 575 15 26 575 26 27 575 27 16 575 16 15 576 16 27 576 27 28 576 28 17 576 17 16 577 17 28 577 28 29 577 29 18 577 18 17 578 18 29 578 29 30 578 30 19 578 19 18 579 19 30 579 30 31 579 31 20 579 20 19 580 20 31 580 31 32 580 32 21 580 21 20 581 22 33 581 33 34 581 34 23 581 23 22 582 23 34 582 34 35 582 35 24 582 24 23 583 24 35 583 35 36 583 36 25 583 25 24 584 25 36 584 36 37 584 37 26 584 26 25 585 26 37 585 37 38 585 38 27 585 27 26 586 27 38 586 38 39 586 39 28 586 28 27 587 28 39 587 39 40 587 40 29 587 29 28 588 29 40 588 40 41 588 41 30 588 30 29 589 30 41 589 41 42 589 42 31 589 31 30 590 31 42 590 42 43 590 43 32 590 32 31 591 33 44 591 44 45 591 45 34 591 34 33 592 34 45 592 45 46 592 46 35 592 35 34 593 35 46 593 46 47 593 47 36 593 36 35 594 36 47 594 47 48 594 48 37 594 37 36 595 37 48 595 48 49 595 49 38 595 38 37 596 38 49 596 49 50 596 50 39 596 39 38 597 39 50 597 50 51 597 51 40 597 40 39 598 40 51 598 51 52 598 52 41 598 41 40 599 41 52 599 52 53 599 53 42 599 42 41 600 42 53 600 53 54 600 54 43 600 43 42 601 44 55 601 55 56 601 56 45 601 45 44 602 45 56 602 56 57 602 57 46 602 46 45 603 46 57 603 57 58 603 58 47 603 47 46 604 47 58 604 58 59 604 59 48 604 48 47 605 48 59 605 59 60 605 60 49 605 49 48 606 49 60 606 60 61 606 61 50 606 50 49 607 50 61 607 61 62 607 62 51 607 51 50 608 51 62 608 62 63 608 63 52 608 52 51 609 52 63 609 63 64 609 64 53 609 53 52 610 53 64 610 64 65 610 65 54 610 54 53 611 55 66 611 66 67 611 67 56 611 56 55 612 56 67 612 67 68 612 68 57 612 57 56 613 57 68 613 68 69 613 69 58 613 58 57 614 58 69 614 69 70 614 70 59 614 59 58 615 59 70 615 70 71 615 71 60 615 60 59 616 60 71 616 71 72 616 72 61 616 61 60 617 61 72 617 72 73 617 73 62 617 62 61 618 62 73 618 73 74 618 74 63 618 63 62 619 63 74 619 74 75 619 75 64 619 64 63 620 64 75 620 75 76 620 76 65 620 65 64 621 66 77 621 77 78 621 78 67 621 67 66 622 67 78 622 78 79 622 79 68 622 68 67 623 68 79 623 79 80 623 80 69 623 69 68 624 69 80 624 80 81 624 81 70 624 70 69 625 70 81 625 81 82 625 82 71 625 71 70 626 71 82 626 82 83 626 83 72 626 72 71 627 72 83 627 83 84 627 84 73 627 73 72 628 73 84 628 84 85 628 85 74 628 74 73 629 74 85 629 85 86 629 86 75 629 75 74 630 75 86 630 86 87 630 87 76 630 76 75 631 77 88 631 88 89 631 89 78 631 78 77 632 78 89 632 89 90 632 90 79 632 79 78 633 79 90 633 90 91 633 91 80 633 80 79 634 80 91 634 91 92 634 92 81 634 81 80 635 81 92 635 92 93 635 93 82 635 82 81 636 82 93 636 93 94 636 94 83 636 83 82 637 83 94 637 94 95 637 95 84 637 84 83 638 84 95 638 95 96 638 96 85 638 85 84 639 85 96 639 96 97 639 97 86 639 86 85 640 86 97 640 97 98 640 98 87 640 87 86 641 88 99 641 99 100 641 100 89 641 89 88 642 89 100 642 100 101 642 101 90 642 90 89 643 90 101 643 101 102 643 102 91 643 91 90 644 91 102 644 102 103 644 103 92 644 92 91 645 92 103 645 103 104 645 104 93 645 93 92 646 93 104 646 104 105 646 105 94 646 94 93 647 94 105 647 105 106 647 106 95 647 95 94 648 95 106 648 106 107 648 107 96 648 96 95 649 96 107 649 107 108 649 108 97 649 97 96 650 97 108 650 108 109 650 109 98 650 98 97 651 99 110 651 110 111 651 111 100 651 100 99 652 100 111 652 111 112 652 112 101 652 101 100 653 101 112 653 112 113 653 113 102 653 102 101 654 102 113 654 113 114 654 114 103 654 103 102 655 103 114 655 114 115 655 115 104 655 104 103 656 104 115 656 115 116 656 116 105 656 105 104 657 105 116 657 116 117 657 117 106 657 106 105 658 106 117 658 117 118 658 118 107 658 107 106 659 107 118 659 118 119 659 119 108 659 108 107 660 108 119 660 119 120 660 120 109 660 109 108 661 110 121 661 121 122 661 122 111 661 111 110 662 111 122 662 122 123 662 123 112 662 112 111 663 112 123 663 123 124 663 124 113 663 113 112 664 113 124 664 124 125 664 125 114 664 114 113 665 114 125 665 125 126 665 126 115 665 115 114 666 115 126 666 126 127 666 127 116 666 116 115 667 116 127 667 127 128 667 128 117 667 117 116 668 117 128 668 128 129 668 129 118 668 118 117 669 118 129 669 129 130 669 130 119 669 119 118 670 119 130 670 130 131 670 131 120 670 120 119 671 121 132 671 132 133 671 133 122 671 122 121 672 122 133 672 133 134 672 134 123 672 123 122 673 123 134 673 134 135 673 135 124 673 124 123 674 124 135 674 135 136 674 136 125 674 125 124 675 125 136 675 136 137 675 137 126 675 126 125 676 126 137 676 137 138 676 138 127 676 127 126 677 127 138 677 138 139 677 139 128 677 128 127 678 128 139 678 139 140 678 140 129 678 129 128 679 129 140 679 140 141 679 141 130 679 130 129 680 130 141 680 141 142 680 142 131 680 131 130 681 132 143 681 143 144 681 144 133 681 133 132 682 133 144 682 144 145 682 145 134 682 134 133 683 134 145 683 145 146 683 146 135 683 135 134 684 135 146 684 146 147 684 147 136 684 136 135 685 136 147 685 147 148 685 148 137 685 137 136 686 137 148 686 148 149 686 149 138 686 138 137 687 138 149 687 149 150 687 150 139 687 139 138 688 139 150 688 150 151 688 151 140 688 140 139 689 140 151 689 151 152 689 152 141 689 141 140 690 141 152 690 152 153 690 153 142 690 142 141 691 143 154 691 154 155 691 155 144 691 144 143 692 144 155 692 155 156 692 156 145 692 145 144 693 145 156 693 156 157 693 157 146 693 146 145 694 146 157 694 157 158 694 158 147 694 147 146 695 147 158 695 158 159 695 159 148 695 148 147 696 148 159 696 159 160 696 160 149 696 149 148 697 149 160 697 160 161 697 161 150 697 150 149 698 150 161 698 161 162 698 162 151 698 151 150 699 151 162 699 162 163 699 163 152 699 152 151 700 152 163 700 163 164 700 164 153 700 153 152 701 154 165 701 165 166 701 166 155 701 155 154 702 155 166 702 166 167 702 167 156 702 156 155 703 156 167 703 167 168 703 168 157 703 157 156 704 157 168 704 168 169 704 169 158 704 158 157 705 158 169 705 169 170 705 170 159 705 159 158 706 159 170 706 170 171 706 171 160 706 160 159 707 160 171 707 171 172 707 172 161 707 161 160 708 161 172 708 172 173 708 173 162 708 162 161 709 162 173 709 173 174 709 174 163 709 163 162 710 163 174 710 174 175 710 175 164 710 164 163 711 165 176 711 176 177 711 177 166 711 166 165 712 166 177 712 177 178 712 178 167 712 167 166 713 167 178 713 178 179 713 179 168 713 168 167 714 168 179 714 179 180 714 180 169 714 169 168 715 169 180 715 180 181 715 181 170 715 170 169 716 170 181 716 181 182 716 182 171 716 171 170 717 171 182 717 182 183 717 183 172 717 172 171 718 172 183 718 183 184 718 184 173 718 173 172 719 173 184 719 184 185 719 185 174 719 174 173 720 174 185 720 185 186 720 186 175 720 175 174 721 176 187 721 187 188 721 188 177 721 177 176 722 177 188 722 188 189 722 189 178 722 178 177 723 178 189 723 189 190 723 190 179 723 179 178 724 179 190 724 190 191 724 191 180 724 180 179 725 180 191 725 191 192 725 192 181 725 181 180 726 181 192 726 192 193 726 193 182 726 182 181 727 182 193 727 193 194 727 194 183 727 183 182 728 183 194 728 194 195 728 195 184 728 184 183 729 184 195 729 195 196 729 196 185 729 185 184 730 185 196 730 196 197 730 197 186 730 186 185 731 187 198 731 198 199 731 199 188 731 188 187 732 188 199 732 199 200 732 200 189 732 189 188 733 189 200 733 200 201 733 201 190 733 190 189 734 190 201 734 201 202 734 202 191 734 191 190 735 191 202 735 202 203 735 203 192 735 192 191 736 192 203 736 203 204 736 204 193 736 193 192 737 193 204 737 204 205 737 205 194 737 194 193 738 194 205 738 205 206 738 206 195 738 195 194 739 195 206 739 206 207 739 207 196 739 196 195 740 196 207 740 207 208 740 208 197 740 197 196 741 198 209 741 209 210 741 210 199 741 199 198 742 199 210 742 210 211 742 211 200 742 200 199 743 200 211 743 211 212 743 212 201 743 201 200 744 201 212 744 212 213 744 213 202 744 202 201 745 202 213 745 213 214 745 214 203 745 203 202 746 203 214 746 214 215 746 215 204 746 204 203 747 204 215 747 215 216 747 216 205 747 205 204 748 205 216 748 216 217 748 217 206 748 206 205 749 206 217 749 217 218 749 218 207 749 207 206 750 207 218 750 218 219 750 219 208 750 208 207 751 209 220 751 220 221 751 221 210 751 210 209 752 210 221 752 221 222 752 222 211 752 211 210 753 211 222 753 222 223 753 223 212 753 212 211 754 212 223 754 223 224 754 224 213 754 213 212 755 213 224 755 224 225 755 225 214 755 214 213 756 214 225 756 225 226 756 226 215 756 215 214 757 215 226 757 226 227 757 227 216 757 216 215 758 216 227 758 227 228 758 228 217 758 217 216 759 217 228 759 228 229 759 229 218 759 218 217 760 218 229 760 229 230 760 230 219 760 219 218 761 220 231 761 231 232 761 232 221 761 221 220 762 221 232 762 232 233 762 233 222 762 222 221 763 222 233 763 233 234 763 234 223 763 223 222 764 223 234 764 234 235 764 235 224 764 224 223 765 224 235 765 235 236 765 236 225 765 225 224 766 225 236 766 236 237 766 237 226 766 226 225 767 226 237 767 237 238 767 238 227 767 227 226 768 227 238 768 238 239 768 239 228 768 228 227 769 228 239 769 239 240 769 240 229 769 229 228 770 229 240 770 240 241 770 241 230 770 230 229 771 231 242 771 242 243 771 243 232 771 232 231 772 232 243 772 243 244 772 244 233 772 233 232 773 233 244 773 244 245 773 245 234 773 234 233 774 234 245 774 245 246 774 246 235 774 235 234 775 235 246 775 246 247 775 247 236 775 236 235 776 236 247 776 247 248 776 248 237 776 237 236 777 237 248 777 248 249 777 249 238 777 238 237 778 238 249 778 249 250 778 250 239 778 239 238 779 239 250 779 250 251 779 251 240 779 240 239
[...]
      <PointData Vectors="UU"  Scalars="PP" ><DataArray Name="UU" NumberOfComponents="3" type="Float32" format="ascii" >
 4.42462 -3.32048e-23 0 4.3817 -3.18099e-23 0 4.25278 0 0 4.03733 5.80519e-23 0 3.73451 0 0 3.34314 0 0 2.8618 0 0 2.28878 2.99203e-23 0 1.6222 0 0 0.859991 0 0 1.48715e-32 1.11737e-40 0 4.42462 0 0 4.3817 -6.58679e-10 0 4.25278 2.80421e-10 0 4.03733 -7.45809e-10 0 3.73451 -3.09793e-10 0 3.34314 -3.43912e-10 0 2.8618 -7.40995e-10 0 2.28878 -9.51787e-10 0 1.6222 -3.85858e-10 0 0.859991 1.96502e-10 0 1.00977e-16 -4.87163e-25 0 4.42462 0 0 4.3817 1.76367e-10 0 4.25278 -1.9917e-10 0 4.03733 -3.6418e-10 0 3.73451 -3.99714e-10 0 3.34314 -1.06605e-09 0 2.8618 -1.1115e-09 0 2.28878 -1.31885e-09 0 1.6222 -8.28684e-10 0 0.859991 -2.99955e-10 0 0 0 0 4.42462 0 0 4.3817 -3.60291e-11 0 4.25278 4.56996e-10 0 4.03733 3.84891e-10 0 3.73451 -7.75902e-10 0 3.34314 -1.16652e-09 0 2.8618 -1.41091e-09 0 2.28878 -1.40736e-09 0 1.6222 -5.47428e-10 0 0.859991 -3.313e-10 0 0 0 0 4.42462 0 0 4.3817 1.06561e-09 0 4.25278 1.56507e-09 0 4.03733 1.28968e-09 0 3.73451 5.60346e-10 0 3.34314 -8.59878e-11 0 2.8618 -1.32546e-09 0 2.28878 -6.03611e-10 0 1.6222 -5.38227e-11 0 0.859991 6.46243e-11 0 0 0 0 4.42462 0 0 4.3817 1.665e-09 0 4.25278 2.70873e-09 0 4.03733 3.26704e-09 0 3.73451 2.78661e-09 0 3.34314 5.94217e-10 0 2.8618 1.9381e-10 0 2.28878 5.70135e-10 0 1.6222 2.54546e-10 0 0.859991 -4.19723e-10 0 5.04887e-17 -2.48746e-25 0 4.42462 -3.23774e-23 0 4.3817 2.3765e-09 0 4.25278 4.37726e-09 0 4.03733 5.77893e-09 0 3.73451 5.53888e-09 0 3.34314 4.72091e-09 0 2.8618 3.42817e-09 0 2.28878 2.43768e-09 0 1.6222 9.91565e-10 0 0.859991 -1.07058e-11 0 -5.9486e-32 -2.97245e-40 0 4.42462 0 0 4.3817 3.42286e-09 0 4.25278 6.41548e-09 0 4.03733 8.77316e-09 0 3.73451 1.07098e-08 0 3.34314 1.09749e-08 0 2.8618 8.59918e-09 0 2.28878 4.95595e-09 0 1.6222 2.52688e-09 0 0.859991 8.97705e-10 0 5.04887e-17 -2.27363e-25 0 4.42462 0 0 4.3817 4.61419e-09 0 4.25278 8.9724e-09 0 4.03733 1.23087e-08 0 3.73451 1.4528e-08 0 3.34314 1.51525e-08 0 2.8618 1.33775e-08 0 2.28878 9.03481e-09 0 1.6222 4.85191e-09 0 0.859991 1.54727e-09 0 5.04887e-17 -2.56237e-25 0 4.42462 -3.19542e-23 0 4.3817 4.82845e-09 0 4.25278 9.17756e-09 0 4.03733 1.25682e-08 0 3.73451 1.46532e-08 0 3.34314 1.52252e-08 0 2.8618 1.42526e-08 0 2.28878 1.11711e-08 0 1.6222 5.7646e-09 0 0.859991 1.74709e-09 0 -5.9486e-32 -2.97737e-40 0 4.42462 0 0 4.3817 4.34243e-09 0 4.25278 8.3728e-09 0 4.03733 1.1569e-08 0 3.73451 1.35623e-08 0 3.34314 1.42142e-08 0 2.8618 1.33644e-08 0 2.28878 1.09016e-08 0 1.6222 6.55206e-09 0 0.859991 1.65352e-09 0 5.04887e-17 -2.77069e-25 0 4.42462 0 0 4.3817 3.89512e-09 0 4.25278 7.39095e-09 0 4.03733 1.01158e-08 0 3.73451 1.17634e-08 0 3.34314 1.21184e-08 0 2.8618 1.11923e-08 0 2.28878 9.20156e-09 0 1.6222 6.28616e-09 0 0.859991 2.37489e-09 0 -1.26027e-31 -6.25991e-40 0 4.42462 0 0 4.3817 3.17999e-09 0 4.25278 5.93595e-09 0 4.03733 8.00433e-09 0 3.73451 9.16135e-09 0 3.34314 9.26381e-09 0 2.8618 8.30812e-09 0 2.28878 6.48028e-09 0 1.6222 4.18013e-09 0 0.859991 1.75515e-09 0 5.04887e-17 -2.13376e-25 0 4.42462 0 0 4.3817 2.39992e-09 0 4.25278 4.48456e-09 0 4.03733 6.00685e-09 0 3.73451 6.7738e-09 0 3.34314 6.68257e-09 0 2.8618 5.74578e-09 0 2.28878 4.12864e-09 0 1.6222 2.20083e-09 0 0.859991 5.49725e-10 0 5.04887e-17 -2.30543e-25 0 4.42462 0 0 4.3817 1.84358e-09 0 4.25278 3.44536e-09 0 4.03733 4.59174e-09 0 3.73451 5.12543e-09 0 3.34314 4.96957e-09 0 2.8618 4.1465e-09 0 2.28878 2.80704e-09 0 1.6222 1.26771e-09 0 0.859991 8.38782e-11 0 5.04887e-17 -2.46367e-25 0 4.42462 0 0 4.3817 1.44186e-09 0 4.25278 2.68938e-09 0 4.03733 3.5703e-09 0 3.73451 3.95714e-09 0 3.34314 3.7915e-09 0 2.8618 3.10469e-09 0 2.28878 2.04135e-09 0 1.6222 8.82124e-10 0 0.859991 5.63191e-11 0 5.04887e-17 -2.47253e-25 0 4.42462 0 0 4.3817 1.08063e-09 0 4.25278 2.00866e-09 0 4.03733 2.64941e-09 0 3.73451 2.90937e-09 0 3.34314 2.75083e-09 0 2.8618 2.21275e-09 0 2.28878 1.4217e-09 0 1.6222 6.03056e-10 0 0.859991 4.80929e-11 0 -1.26027e-31 -5.45944e-40 0 4.42462 0 0 4.3817 7.87268e-10 0 4.25278 1.45871e-09 0 4.03733 1.91385e-09 0 3.73451 2.08562e-09 0 3.34314 1.95364e-09 0 2.8618 1.55432e-09 0 2.28878 9.90684e-10 0 1.6222 4.23e-10 0 0.859991 4.26155e-11 0 5.04887e-17 -2.39118e-25 0 4.42462 0 0 4.3817 5.65175e-10 0 4.25278 1.04486e-09 0 4.03733 1.36633e-09 0 3.73451 1.48229e-09 0 3.34314 1.38235e-09 0 2.8618 1.09793e-09 0 2.28878 7.03795e-10 0 1.6222 3.10497e-10 0 0.859991 4.11769e-11 0 5.04887e-17 -2.36237e-25 0 4.42462 0 0 4.3817 4.00736e-10 0 4.25278 7.40136e-10 0 4.03733 9.66739e-10 0 3.73451 1.048e-09 0 3.34314 9.77874e-10 0 2.8618 7.81167e-10 0 2.28878 5.09155e-10 0 1.6222 2.34735e-10 0 0.859991 3.95005e-11 0 5.04887e-17 -2.34346e-25 0 4.42462 0 0 4.3817 2.80704e-10 0 4.25278 5.18505e-10 0 4.03733 6.77747e-10 0 3.73451 7.36359e-10 0 3.34314 6.90479e-10 0 2.8618 5.56906e-10 0 2.28878 3.71314e-10 0 1.6222 1.80132e-10 0 0.859991 3.80306e-11 0 -1.26027e-31 -5.74357e-40 0 4.42462 0 0 4.3817 1.93033e-10 0 4.25278 3.56956e-10 0 4.03733 4.67602e-10 0 3.73451 5.10239e-10 0 3.34314 4.82257e-10 0 2.8618 3.94098e-10 0 2.28878 2.68818e-10 0 1.6222 1.3753e-10 0 0.859991 3.46009e-11 0 1.22713e-31 5.61706e-40 0 4.42462 0 0 4.3817 1.28062e-10 0 4.25278 2.37127e-10 0 4.03733 3.1156e-10 0 3.73451 3.4175e-10 0 3.34314 3.25851e-10 0 2.8618 2.70131e-10 0 2.28878 1.88221e-10 0 1.6222 1.00189e-10 0 0.859991 2.90493e-11 0 -1.26027e-31 -5.78268e-40 0 4.42462 0 0 4.3817 7.79287e-11 0 4.25278 1.44532e-10 0 4.03733 1.90478e-10 0 3.73451 2.09952e-10 0 3.34314 2.0172e-10 0 2.8618 1.69233e-10 0 2.28878 1.20051e-10 0 1.6222 6.54108e-11 0 0.859991 2.01884e-11 0 -1.26027e-31 -5.78669e-40 0 4.42462 0 0 4.3817 3.68094e-11 0 4.25278 6.83749e-11 0 4.03733 9.03104e-11 0 3.73451 9.98898e-11 0 3.34314 9.64863e-11 0 2.8618 8.15996e-11 0 2.28878 5.8589e-11 0 1.6222 3.24049e-11 0 0.859991 1.00753e-11 0 1.22713e-31 5.63262e-40 0 4.42462 0 0 4.3817 -1.47829e-15 0 4.25278 -2.79141e-15 0 4.03733 -3.66147e-15 0 3.73451 -3.75646e-15 0 3.34314 -3.67228e-15 0 2.8618 -3.21889e-15 0 2.28878 -2.21806e-15 0 1.6222 -1.17943e-15 0 0.859991 -3.37083e-16 0 -1.26027e-31 -5.78106e-40 0 4.42462 0 0 4.3817 -3.68111e-11 0 4.25278 -6.83807e-11 0 4.03733 -9.03165e-11 0 3.73451 -9.98972e-11 0 3.34314 -9.64943e-11 0 2.8618 -8.16053e-11 0 2.28878 -5.85937e-11 0 1.6222 -3.24077e-11 0 0.859991 -1.00758e-11 0 1.22713e-31 5.62536e-40 0 4.42462 0 0 4.3817 -7.79312e-11 0 4.25278 -1.44538e-10 0 4.03733 -1.90485e-10 0 3.73451 -2.09959e-10 0 3.34314 -2.01727e-10 0 2.8618 -1.6924e-10 0 2.28878 -1.20056e-10 0 1.6222 -6.54133e-11 0 0.859991 -2.01892e-11 0 -1.26027e-31 -5.77436e-40 0 4.42462 0 0 4.3817 -1.28064e-10 0 4.25278 -2.37132e-10 0 4.03733 -3.11568e-10 0 3.73451 -3.41758e-10 0 3.34314 -3.25858e-10 0 2.8618 -2.70138e-10 0 2.28878 -1.88226e-10 0 1.6222 -1.00192e-10 0 0.859991 -2.90503e-11 0 -1.26027e-31 -5.77788e-40 0 4.42462 0 0 4.3817 -1.93033e-10 0 4.25278 -3.56961e-10 0 4.03733 -4.67608e-10 0 3.73451 -5.10247e-10 0 3.34314 -4.82265e-10 0 2.8618 -3.94105e-10 0 2.28878 -2.68824e-10 0 1.6222 -1.37534e-10 0 0.859991 -3.46016e-11 0 1.22713e-31 5.63796e-40 0 4.42462 0 0 4.3817 -2.80704e-10 0 4.25278 -5.18509e-10 0 4.03733 -6.77753e-10 0 3.73451 -7.36366e-10 0 3.34314 -6.90487e-10 0 2.8618 -5.56913e-10 0 2.28878 -3.7132e-10 0 1.6222 -1.80134e-10 0 0.859991 -3.80314e-11 0 -1.26027e-31 -5.81309e-40 0 4.42462 0 0 4.3817 -4.00737e-10 0 4.25278 -7.40139e-10 0 4.03733 -9.66742e-10 0 3.73451 -1.048e-09 0 3.34314 -9.77879e-10 0 2.8618 -7.81172e-10 0 2.28878 -5.0916e-10 0 1.6222 -2.34738e-10 0 0.859991 -3.95011e-11 0 1.22713e-31 5.69681e-40 0 4.42462 0 0 4.3817 -5.65175e-10 0 4.25278 -1.04486e-09 0 4.03733 -1.36633e-09 0 3.73451 -1.48229e-09 0 3.34314 -1.38235e-09 0 2.8618 -1.09794e-09 0 2.28878 -7.03798e-10 0 1.6222 -3.10498e-10 0 0.859991 -4.11771e-11 0 -1.26027e-31 -5.89664e-40 0 4.42462 0 0 4.3817 -7.87269e-10 0 4.25278 -1.45871e-09 0 4.03733 -1.91385e-09 0 3.73451 -2.08563e-09 0 3.34314 -1.95364e-09 0 2.8618 -1.55432e-09 0 2.28878 -9.90686e-10 0 1.6222 -4.23002e-10 0 0.859991 -4.2616e-11 0 -1.26027e-31 -5.97448e-40 0 4.42462 0 0 4.3817 -1.08063e-09 0 4.25278 -2.00866e-09 0 4.03733 -2.64941e-09 0 3.73451 -2.90937e-09 0 3.34314 -2.75083e-09 0 2.8618 -2.21275e-09 0 2.28878 -1.4217e-09 0 1.6222 -6.03056e-10 0 0.859991 -4.80927e-11 0 1.22713e-31 5.91027e-40 0 4.42462 0 0 4.3817 -1.44185e-09 0 4.25278 -2.68938e-09 0 4.03733 -3.5703e-09 0 3.73451 -3.95714e-09 0 3.34314 -3.7915e-09 0 2.8618 -3.10469e-09 0 2.28878 -2.04135e-09 0 1.6222 -8.82124e-10 0 0.859991 -5.63188e-11 0 -1.26027e-31 -6.33922e-40 0 4.42462 0 0 4.3817 -1.84358e-09 0 4.25278 -3.44536e-09 0 4.03733 -4.59173e-09 0 3.73451 -5.12543e-09 0 3.34314 -4.96957e-09 0 2.8618 -4.1465e-09 0 2.28878 -2.80704e-09 0 1.6222 -1.26771e-09 0 0.859991 -8.38779e-11 0 1.22713e-31 6.33751e-40 0 4.42462 0 0 4.3817 -2.39991e-09 0 4.25278 -4.48455e-09 0 4.03733 -6.00684e-09 0 3.73451 -6.77379e-09 0 3.34314 -6.68256e-09 0 2.8618 -5.74578e-09 0 2.28878 -4.12863e-09 0 1.6222 -2.20083e-09 0 0.859991 -5.49724e-10 0 -1.26027e-31 -5.83163e-40 0 4.42462 0 0 4.3817 -3.17999e-09 0 4.25278 -5.93594e-09 0 4.03733 -8.00432e-09 0 3.73451 -9.16134e-09 0 3.34314 -9.2638e-09 0 2.8618 -8.30811e-09 0 2.28878 -6.48028e-09 0 1.6222 -4.18013e-09 0 0.859991 -1.75515e-09 0 -1.26027e-31 -4.74103e-40 0 4.42462 0 0 4.3817 -3.89511e-09 0 4.25278 -7.39094e-09 0 4.03733 -1.01158e-08 0 3.73451 -1.17633e-08 0 3.34314 -1.21184e-08 0 2.8618 -1.11923e-08 0 2.28878 -9.20155e-09 0 1.6222 -6.28616e-09 0 0.859991 -2.37489e-09 0 1.22713e-31 4.78623e-40 0 4.42462 0 0 4.3817 -4.34242e-09 0 4.25278 -8.37279e-09 0 4.03733 -1.1569e-08 0 3.73451 -1.35623e-08 0 3.34314 -1.42142e-08 0 2.8618 -1.33644e-08 0 2.28878 -1.09016e-08 0 1.6222 -6.55206e-09 0 0.859991 -1.65352e-09 0 -1.26027e-31 -6.74753e-40 0 4.42462 0 0 4.3817 -4.82845e-09 0 4.25278 -9.17755e-09 0 4.03733 -1.25682e-08 0 3.73451 -1.46532e-08 0 3.34314 -1.52252e-08 0 2.8618 -1.42526e-08 0 2.28878 -1.11711e-08 0 1.6222 -5.7646e-09 0 0.859991 -1.74709e-09 0 5.04887e-17 -2.37443e-25 0 4.42462 0 0 4.3817 -4.61418e-09 0 4.25278 -8.97239e-09 0 4.03733 -1.23087e-08 0 3.73451 -1.4528e-08 0 3.34314 -1.51525e-08 0 2.8618 -1.33775e-08 0 2.28878 -9.03481e-09 0 1.6222 -4.85191e-09 0 0.859991 -1.54727e-09 0 -1.26027e-31 -5.3691e-40 0 4.42462 0 0 4.3817 -3.42286e-09 0 4.25278 -6.41548e-09 0 4.03733 -8.77315e-09 0 3.73451 -1.07098e-08 0 3.34314 -1.09749e-08 0 2.8618 -8.59918e-09 0 2.28878 -4.95595e-09 0 1.6222 -2.52688e-09 0 0.859991 -8.97704e-10 0 -1.26027e-31 -5.8734e-40 0 4.42462 0 0 4.3817 -2.3765e-09 0 4.25278 -4.37725e-09 0 4.03733 -5.77892e-09 0 3.73451 -5.53888e-09 0 3.34314 -4.7209e-09 0 2.8618 -3.42817e-09 0 2.28878 -2.43768e-09 0 1.6222 -9.91562e-10 0 0.859991 1.07066e-11 0 -1.26027e-31 -3.34533e-40 0 4.42462 0 0 4.3817 -1.665e-09 0 4.25278 -2.70873e-09 0 4.03733 -3.26703e-09 0 3.73451 -2.7866e-09 0 3.34314 -5.94213e-10 0 2.8618 -1.93807e-10 0 2.28878 -5.70133e-10 0 1.6222 -2.54544e-10 0 0.859991 4.19723e-10 0 -1.26027e-31 -5.48234e-40 0 4.42462 0 0 4.3817 -1.06561e-09 0 4.25278 -1.56507e-09 0 4.03733 -1.28968e-09 0 3.73451 -5.60345e-10 0 3.34314 8.59898e-11 0 2.8618 1.32546e-09 0 2.28878 6.03612e-10 0 1.6222 5.38231e-11 0 0.859991 -6.46243e-11 0 5.04887e-17 -2.52127e-25 0 4.42462 0 0 4.3817 3.60303e-11 0 4.25278 -4.56997e-10 0 4.03733 -3.84892e-10 0 3.73451 7.75904e-10 0 3.34314 1.16652e-09 0 2.8618 1.41092e-09 0 2.28878 1.40736e-09 0 1.6222 5.47427e-10 0 0.859991 3.313e-10 0 -1.26027e-31 -3.39742e-40 0 4.42462 0 0 4.3817 -1.76367e-10 0 4.25278 1.99168e-10 0 4.03733 3.6418e-10 0 3.73451 3.99715e-10 0 3.34314 1.06605e-09 0 2.8618 1.1115e-09 0 2.28878 1.31885e-09 0 1.6222 8.28684e-10 0 0.859991 2.99955e-10 0 -1.26027e-31 -1.46939e-40 0 4.42462 0 0 4.3817 6.58681e-10 0 4.25278 -2.8042e-10 0 4.03733 7.4581e-10 0 3.73451 3.09795e-10 0 3.34314 3.43913e-10 0 2.8618 7.40996e-10 0 2.28878 9.51789e-10 0 1.6222 3.85859e-10 0 0.859991 -1.96501e-10 0 -1.26027e-31 -6.0886e-40 0 4.42462 3.32048e-23 0 4.3817 3.18099e-23 0 4.25278 -1.93931e-38 0 4.03733 -2.11439e-38 0 3.73451 -1.65643e-38 0 3.34314 5.81846e-38 0 2.8618 2.81535e-38 0 2.28878 2.99203e-23 0 1.6222 2.54999e-38 0 0.859991 7.57151e-39 0 1.00977e-16 7.58546e-25 0 4.41389 -8.18245e-11 0 4.32802 -8.39611e-10 0 4.15592 -9.43818e-11 0 3.89691 -4.11428e-10 0 3.54998 -3.91176e-10 0 3.11382 -2.68803e-10 0 2.58686 -1.88257e-10 0 1.96731 -3.74412e-10 0 1.25318 -2.71237e-10 0 0.442356 2.35682e-10 0 4.41389 -4.52628e-10 0 4.32802 3.39979e-10 0 4.15592 -2.50883e-10 0 3.89691 -4.73543e-10 0 3.54998 -7.01709e-10 0 3.11382 -9.25181e-10 0 2.58686 -6.68113e-10 0 1.96731 -8.50073e-10 0 1.25318 -9.41752e-12 0 0.442356 -2.47156e-10 0 4.41389 -6.1241e-11 0 4.32802 -1.97426e-10 0 4.15592 -3.40238e-10 0 3.89691 -2.7681e-10 0 3.54998 -1.17e-09 0 3.11382 -1.49771e-09 0 2.58686 -1.79742e-09 0 1.96731 -1.29058e-09 0 1.25318 -1.02941e-09 0 0.442356 -2.75576e-10 0 4.41389 6.69917e-11 0 4.32802 8.91774e-10 0 4.15592 1.12228e-09 0 3.89691 1.26544e-10 0 3.54998 -4.31608e-10 0 3.11382 -8.79928e-10 0 2.58686 -1.56605e-09 0 1.96731 -5.38073e-10 0 1.25318 -9.38164e-11 0 0.442356 -1.84043e-10 0 4.41389 6.00587e-10 0 4.32802 1.66085e-09 0 4.15592 1.78253e-09 0 3.89691 1.92006e-09 0 3.54998 8.66548e-10 0 3.11382 -7.01306e-10 0 2.58686 -6.5225e-10 0 1.96731 -4.36907e-11 0 1.25318 2.33579e-11 0 0.442356 -2.18582e-10 0 4.41389 1.25485e-09 0 4.32802 2.67667e-09 0 4.15592 4.29846e-09 0 3.89691 4.50082e-09 0 3.54998 2.99969e-09 0 3.11382 1.62621e-09 0 2.58686 1.64536e-09 0 1.96731 1.21619e-09 0 1.25318 1.19085e-10 0 0.442356 -1.39673e-10 0 4.41389 1.66142e-09 0 4.32802 4.3918e-09 0 4.15592 6.37322e-09 0 3.89691 7.39017e-09 0 3.54998 8.02768e-09 0 3.11382 6.91292e-09 0 2.58686 4.46522e-09 0 1.96731 2.45232e-09 0 1.25318 8.17769e-10 0 0.442356 1.52959e-10 0 4.41389 1.9981e-09 0 4.32802 5.77454e-09 0 4.15592 9.42216e-09 0 3.89691 1.22033e-08 0 3.54998 1.35239e-08 0 3.11382 1.29442e-08 0 2.58686 9.2861e-09 0 1.96731 5.10902e-09 0 1.25318 2.41229e-09 0 0.442356 4.84438e-10 0 4.41389 2.49186e-09 0 4.32802 7.18622e-09 0 4.15592 1.11779e-08 0 3.89691 1.40928e-08 0 3.54998 1.5574e-08 0 3.11382 1.51772e-08 0 2.58686 1.26986e-08 0 1.96731 7.94342e-09 0 1.25318 3.51613e-09 0 0.442356 5.0368e-10 0 4.41389 2.35572e-09 0 4.32802 6.78957e-09 0 4.15592 1.05871e-08 0 3.89691 1.329e-08 0 3.54998 1.4605e-08 0 3.11382 1.45339e-08 0 2.58686 1.28742e-08 0 1.96731 8.89028e-09 0 1.25318 3.43243e-09 0 0.442356 4.53911e-10 0 4.41389 2.07601e-09 0 4.32802 6.0982e-09 0 4.15592 9.5163e-09 0 3.89691 1.19707e-08 0 3.54998 1.32083e-08 0 3.11382 1.30282e-08 0 2.58686 1.14536e-08 0 1.96731 8.65195e-09 0 1.25318 4.35804e-09 0 0.442356 4.33415e-10 0 4.41389 1.81999e-09 0 4.32802 5.23876e-09 0 4.15592 8.06034e-09 0 3.89691 9.99295e-09 0 3.54998 1.08095e-08 0 3.11382 1.0435e-08 0 2.58686 8.97766e-09 0 1.96731 6.71639e-09 0 1.25318 3.89973e-09 0 0.442356 7.92848e-10 0 4.41389 1.40836e-09 0 4.32802 4.02299e-09 0 4.15592 6.14167e-09 0 3.89691 7.52448e-09 0 3.54998 7.99813e-09 0 3.11382 7.49992e-09 0 2.58686 6.11445e-09 0 1.96731 4.128e-09 0 1.25318 2.03229e-09 0 0.442356 3.20403e-10 0 4.41389 1.06454e-09 0 4.32802 3.05005e-09 0 4.15592 4.64057e-09 0 3.89691 5.62959e-09 0 3.54998 5.88474e-09 0 3.11382 5.36706e-09 0 2.58686 4.15943e-09 0 1.96731 2.49751e-09 0 1.25318 8.36041e-10 0 0.442356 -1.02126e-10 0 4.41389 8.32467e-10 0 4.32802 2.38842e-09 0 4.15592 3.62629e-09 0 3.89691 4.37496e-09 0 3.54998 4.52601e-09 0 3.11382 4.05555e-09 0 2.58686 3.04727e-09 0 1.96731 1.72122e-09 0 1.25318 4.73087e-10 0 0.442356 -1.14767e-10 0 4.41389 6.38417e-10 0 4.32802 1.82832e-09 0 4.15592 2.76415e-09 0 3.89691 3.31251e-09 0 3.54998 3.39121e-09 0 3.11382 2.9925e-09 0 2.58686 2.1996e-09 0 1.96731 1.20913e-09 0 1.25318 3.30337e-10 0 0.442356 -5.66634e-11 0 4.41389 4.70667e-10 0 4.32802 1.34455e-09 0 4.15592 2.02306e-09 0 3.89691 2.40599e-09 0 3.54998 2.43797e-09 0 3.11382 2.12152e-09 0 2.58686 1.53411e-09 0 1.96731 8.29423e-10 0 1.25318 2.30621e-10 0 0.442356 -3.41599e-11 0 4.41389 3.40515e-10 0 4.32802 9.70714e-10 0 4.15592 1.45541e-09 0 3.89691 1.72156e-09 0 3.54998 1.73275e-09 0 3.11382 1.49797e-09 0 2.58686 1.07819e-09 0 1.96731 5.87306e-10 0 1.25318 1.72952e-10 0 0.442356 -1.8081e-11 0 4.41389 2.42934e-10 0 4.32802 6.91813e-10 0 4.15592 1.03526e-09 0 3.89691 1.22167e-09 0 3.54998 1.22636e-09 0 3.11382 1.05985e-09 0 2.58686 7.67474e-10 0 1.96731 4.27048e-10 0 1.25318 1.36007e-10 0 0.442356 -7.2456e-12 0 4.41389 1.71294e-10 0 4.32802 4.87607e-10 0 4.15592 7.2942e-10 0 3.89691 8.6098e-10 0 3.54998 8.65787e-10 0 3.11382 7.51728e-10 0 2.58686 5.51677e-10 0 1.96731 3.16405e-10 0 1.25318 1.10057e-10 0 0.442356 1.08864e-13 0 4.41389 1.19028e-10 0 4.32802 3.38943e-10 0 4.15592 5.07545e-10 0 3.89691 6.00464e-10 0 3.54998 6.06793e-10 0 3.11382 5.31454e-10 0 2.58686 3.96143e-10 0 1.96731 2.35402e-10 0 1.25318 8.93716e-11 0 0.442356 5.30826e-12 0 4.41389 8.06436e-11 0 4.32802 2.29858e-10 0 4.15592 3.44822e-10 0 3.89691 4.0946e-10 0 3.54998 4.16509e-10 0 3.11382 3.68948e-10 0 2.58686 2.79886e-10 0 1.96731 1.71498e-10 0 1.25318 7.06957e-11 0 0.442356 7.43851e-12 0 4.41389 5.17384e-11 0 4.32802 1.47575e-10 0 4.15592 2.2189e-10 0 3.89691 2.64544e-10 0 3.54998 2.7087e-10 0 3.11382 2.42517e-10 0 2.58686 1.87084e-10 0 1.96731 1.17374e-10 0 1.25318 5.08793e-11 0 0.442356 7.29283e-12 0 4.41389 2.87979e-11 0 4.32802 8.22374e-11 0 4.15592 1.23928e-10 0 3.89691 1.48258e-10 0 3.54998 1.52612e-10 0 3.11382 1.37747e-10 0 2.58686 1.07587e-10 0 1.96731 6.86825e-11 0 1.25318 3.02999e-11 0 0.442356 4.71179e-12 0 4.41389 9.23018e-12 0 4.32802 2.63834e-11 0 4.15592 3.98051e-11 0 3.89691 4.77076e-11 0 3.54998 4.92533e-11 0 3.11382 4.46578e-11 0 2.58686 3.51206e-11 0 1.96731 2.26551e-11 0 1.25318 1.00888e-11 0 0.442356 1.54992e-12 0 4.41389 -9.23154e-12 0 4.32802 -2.63876e-11 0 4.15592 -3.98114e-11 0 3.89691 -4.77144e-11 0 3.54998 -4.92614e-11 0 3.11382 -4.46648e-11 0 2.58686 -3.51257e-11 0 1.96731 -2.26585e-11 0 1.25318 -1.00902e-11 0 0.442356 -1.55004e-12 0 4.41389 -2.87986e-11 0 4.32802 -8.22412e-11 0 4.15592 -1.23934e-10 0 3.89691 -1.48265e-10 0 3.54998 -1.52621e-10 0 3.11382 -1.37754e-10 0 2.58686 -1.07592e-10 0 1.96731 -6.86861e-11 0 1.25318 -3.03014e-11 0 0.442356 -4.71193e-12 0 4.41389 -5.17408e-11 0 4.32802 -1.47579e-10 0 4.15592 -2.21896e-10 0 3.89691 -2.64551e-10 0 3.54998 -2.70877e-10 0 3.11382 -2.42524e-10 0 2.58686 -1.8709e-10 0 1.96731 -1.17378e-10 0 1.25318 -5.08809e-11 0 0.442356 -7.29308e-12 0 4.41389 -8.0644e-11 0 4.32802 -2.29862e-10 0 4.15592 -3.44828e-10 0 3.89691 -4.09467e-10 0 3.54998 -4.16518e-10 0 3.11382 -3.68956e-10 0 2.58686 -2.79893e-10 0 1.96731 -1.71502e-10 0 1.25318 -7.06975e-11 0 0.442356 -7.4387e-12 0 4.41389 -1.19027e-10 0 4.32802 -3.38946e-10 0 4.15592 -5.07551e-10 0 3.89691 -6.00471e-10 0 3.54998 -6.06802e-10 0 3.11382 -5.31461e-10 0 2.58686 -3.9615e-10 0 1.96731 -2.35406e-10 0 1.25318 -8.93733e-11 0 0.442356 -5.30844e-12 0 4.41389 -1.71295e-10 0 4.32802 -4.8761e-10 0 4.15592 -7.29424e-10 0 3.89691 -8.60985e-10 0 3.54998 -8.65793e-10 0 3.11382 -7.51735e-10 0 2.58686 -5.51683e-10 0 1.96731 -3.1641e-10 0 1.25318 -1.10059e-10 0 0.442356 -1.09126e-13 0 4.41389 -2.42935e-10 0 4.32802 -6.91813e-10 0 4.15592 -1.03526e-09 0 3.89691 -1.22167e-09 0 3.54998 -1.22636e-09 0 3.11382 -1.05985e-09 0 2.58686 -7.67478e-10 0 1.96731 -4.27051e-10 0 1.25318 -1.36008e-10 0 0.442356 7.24568e-12 0 4.41389 -3.40516e-10 0 4.32802 -9.70715e-10 0 4.15592 -1.45542e-09 0 3.89691 -1.72156e-09 0 3.54998 -1.73275e-09 0 3.11382 -1.49797e-09 0 2.58686 -1.07819e-09 0 1.96731 -5.87308e-10 0 1.25318 -1.72952e-10 0 0.442356 1.80809e-11 0 4.41389 -4.70667e-10 0 4.32802 -1.34455e-09 0 4.15592 -2.02306e-09 0 3.89691 -2.40599e-09 0 3.54998 -2.43797e-09 0 3.11382 -2.12152e-09 0 2.58686 -1.53411e-09 0 1.96731 -8.29424e-10 0 1.25318 -2.30622e-10 0 0.442356 3.41597e-11 0 4.41389 -6.38416e-10 0 4.32802 -1.82832e-09 0 4.15592 -2.76415e-09 0 3.89691 -3.31251e-09 0 3.54998 -3.39121e-09 0 3.11382 -2.9925e-09 0 2.58686 -2.1996e-09 0 1.96731 -1.20913e-