<?xml version="1.0"?>

<VTKFile type="UnstructuredGrid" >
  <UnstructuredGrid>
    <Piece NumberOfPoints="1071"  NumberOfCells="1000" >
      <Cells><DataArray Name="connectivity" type="Int32" format="ascii" >
 0 21 22 1 1 22 23 2 2 23 24 3 3 24 25 4 4 25 26 5 5 26 27 6 6 27 28 7 7 28 29 8 8 29 30 9 9 30 31 10 10 31 32 11 11 32 33 12 12 33 34 13 13 34 35 14 14 35 36 15 15 36 37 16 16 37 38 17 17 38 39 18 18 39 40 19 19 40 41 20 21 42 43 22 22 43 44 23 23 44 45 24 24 45 46 25 25 46 47 26 26 47 48 27 27 48 49 28 28 49 50 29 29 50 51 30 30 51 52 31 31 52 53 32 32 53 54 33 33 54 55 34 34 55 56 35 35 56 57 36 36 57 58 37 37 58 59 38 38 59 60 39 39 60 61 40 40 61 62 41 42 63 64 43 43 64 65 44 44 65 66 45 45 66 67 46 46 67 68 47 47 68 69 48 48 69 70 49 49 70 71 50 50 71 72 51 51 72 73 52 52 73 74 53 53 74 75 54 54 75 76 55 55 76 77 56 56 77 78 57 57 78 79 58 58 79 80 59 59 80 81 60 60 81 82 61 61 82 83 62 63 84 85 64 64 85 86 65 65 86 87 66 66 87 88 67 67 88 89 68 68 89 90 69 69 90 91 70 70 91 92 71 71 92 93 72 72 93 94 73 73 94 95 74 74 95 96 75 75 96 97 76 76 97 98 77 77 98 99 78 78 99 100 79 79 100 101 80 80 101 102 81 81 102 103 82 82 103 104 83 84 105 106 85 85 106 107 86 86 107 108 87 87 108 109 88 88 109 110 89 89 110 111 90 90 111 112 91 91 112 113 92 92 113 114 93 93 114 115 94 94 115 116 95 95 116 117 96 96 117 118 97 97 118 119 98 98 119 120 99 99 120 121 100 100 121 122 101 101 122 123 102 102 123 124 103 103 124 125 104 105 126 127 106 106 127 128 107 107 128 129 108 108 129 130 109 109 130 131 110 110 131 132 111 111 132 133 112 112 133 134 113 113 134 135 114 114 135 136 115 115 136 137 116 116 137 138 117 117 138 139 118 118 139 140 119 119 140 141 120 120 141 142 121 121 142 143 122 122 143 144 123 123 144 145 124 124 145 146 125 126 147 148 127 127 148 149 128 128 149 150 129 129 150 151 130 130 151 152 131 131 152 153 132 132 153 154 133 133 154 155 134 134 155 156 135 135 156 157 136 136 157 158 137 137 158 159 138 138 159 160 139 139 160 161 140 140 161 162 141 141 162 163 142 142 163 164 143 143 164 165 144 144 165 166 145 145 166 167 146 147 168 169 148 148 169 170 149 149 170 171 150 150 171 172 151 151 172 173 152 152 173 174 153 153 174 175 154 154 175 176 155 155 176 177 156 156 177 178 157 157 178 179 158 158 179 180 159 159 180 181 160 160 181 182 161 161 182 183 162 162 183 184 163 163 184 185 164 164 185 186 165 165 186 187 166 166 187 188 167 168 189 190 169 169 190 191 170 170 191 192 171 171 192 193 172 172 193 194 173 173 194 195 174 174 195 196 175 175 196 197 176 176 197 198 177 177 198 199 178 178 199 200 179 179 200 201 180 180 201 202 181 181 202 203 182 182 203 204 183 183 204 205 184 184 205 206 185 185 206 207 186 186 207 208 187 187 208 209 188 189 210 211 190 190 211 212 191 191 212 213 192 192 213 214 193 193 214 215 194 194 215 216 195 195 216 217 196 196 217 218 197 197 218 219 198 198 219 220 199 199 220 221 200 200 221 222 201 201 222 223 202 202 223 224 203 203 224 225 204 204 225 226 205 205 226 227 206 206 227 228 207 207 228 229 208 208 229 230 209 210 231 232 211 211 232 233 212 212 233 234 213 213 234 235 214 214 235 236 215 215 236 237 216 216 237 238 217 217 238 239 218 218 239 240 219 219 240 241 220 220 241 242 221 221 242 243 222 222 243 244 223 223 244 245 224 224 245 246 225 225 246 247 226 226 247 248 227 227 248 249 228 228 249 250 229 229 250 251 230 231 252 253 232 232 253 254 233 233 254 255 234 234 255 256 235 235 256 257 236 236 257 258 237 237 258 259 238 238 259 260 239 239 260 261 240 240 261 262 241 241 262 263 242 242 263 264 243 243 264 265 244 244 265 266 245 245 266 267 246 246 267 268 247 247 268 269 248 248 269 270 249 249 270 271 250 250 271 272 251 252 273 274 253 253 274 275 254 254 275 276 255 255 276 277 256 256 277 278 257 257 278 279 258 258 279 280 259 259 280 281 260 260 281 282 261 261 282 283 262 262 283 284 263 263 284 285 264 264 285 286 265 265 286 287 266 266 287 288 267 267 288 289 268 268 289 290 269 269 290 291 270 270 291 292 271 271 292 293 272 273 294 295 274 274 295 296 275 275 296 297 276 276 297 298 277 277 298 299 278 278 299 300 279 279 300 301 280 280 301 302 281 281 302 303 282 282 303 304 283 283 304 305 284 284 305 306 285 285 306 307 286 286 307 308 287 287 308 309 288 288 309 310 289 289 310 311 290 290 311 312 291 291 312 313 292 292 313 314 293 294 315 316 295 295 316 317 296 296 317 318 297 297 318 319 298 298 319 320 299 299 320 321 300 300 321 322 301 301 322 323 302 302 323 324 303 303 324 325 304 304 325 326 305 305 326 327 306 306 327 328 307 307 328 329 308 308 329 330 309 309 330 331 310 310 331 332 311 311 332 333 312 312 333 334 313 313 334 335 314 315 336 337 316 316 337 338 317 317 338 339 318 318 339 340 319 319 340 341 320 320 341 342 321 321 342 343 322 322 343 344 323 323 344 345 324 324 345 346 325 325 346 347 326 326 347 348 327 327 348 349 328 328 349 350 329 329 350 351 330 330 351 352 331 331 352 353 332 332 353 354 333 333 354 355 334 334 355 356 335 336 357 358 337 337 358 359 338 338 359 360 339 339 360 361 340 340 361 362 341 341 362 363 342 342 363 364 343 343 364 365 344 344 365 366 345 345 366 367 346 346 367 368 347 347 368 369 348 348 369 370 349 349 370 371 350 350 371 372 351 351 372 373 352 352 373 374 353 353 374 375 354 354 375 376 355 355 376 377 356 357 378 379 358 358 379 380 359 359 380 381 360 360 381 382 361 361 382 383 362 362 383 384 363 363 384 385 364 364 385 386 365 365 386 387 366 366 387 388 367 367 388 389 368 368 389 390 369 369 390 391 370 370 391 392 371 371 392 393 372 372 393 394 373 373 394 395 374 374 395 396 375 375 396 397 376 376 397 398 377 378 399 400 379 379 400 401 380 380 401 402 381 381 402 403 382 382 403 404 383 383 404 405 384 384 405 406 385 385 406 407 386 386 407 408 387 387 408 409 388 388 409 410 389 389 410 411 390 390 411 412 391 391 412 413 392 392 413 414 393 393 414 415 394 394 415 416 395 395 416 417 396 396 417 418 397 397 418 419 398 399 420 421 400 400 421 422 401 401 422 423 402 402 423 424 403 403 424 425 404 404 425 426 405 405 426 427 406 406 427 428 407 407 428 429 408 408 429 430 409 409 430 431 410 410 431 432 411 411 432 433 412 412 433 434 413 413 434 435 414 414 435 436 415 415 436 437 416 416 437 438 417 417 438 439 418 418 439 440 419 420 441 442 421 421 442 443 422 422 443 444 423 423 444 445 424 424 445 446 425 425 446 447 426 426 447 448 427 427 448 449 428 428 449 450 429 429 450 451 430 430 451 452 431 431 452 453 432 432 453 454 433 433 454 455 434 434 455 456 435 435 456 457 436 436 457 458 437 437 458 459 438 438 459 460 439 439 460 461 440 441 462 463 442 442 463 464 443 443 464 465 444 444 465 466 445 445 466 467 446 446 467 468 447 447 468 469 448 448 469 470 449 449 470 471 450 450 471 472 451 451 472 473 452 452 473 474 453 453 474 475 454 454 475 476 455 455 476 477 456 456 477 478 457 457 478 479 458 458 479 480 459 459 480 481 460 460 481 482 461 462 483 484 463 463 484 485 464 464 485 486 465 465 486 487 466 466 487 488 467 467 488 489 468 468 489 490 469 469 490 491 470 470 491 492 471 471 492 493 472 472 493 494 473 473 494 495 474 474 495 496 475 475 496 497 476 476 497 498 477 477 498 499 478 478 499 500 479 479 500 501 480 480 501 502 481 481 502 503 482 483 504 505 484 484 505 506 485 485 506 507 486 486 507 508 487 487 508 509 488 488 509 510 489 489 510 511 490 490 511 512 491 491 512 513 492 492 513 514 493 493 514 515 494 494 515 516 495 495 516 517 496 496 517 518 497 497 518 519 498 498 519 520 499 499 520 521 500 500 521 522 501 501 522 523 502 502 523 524 503 504 525 526 505 505 526 527 506 506 527 528 507 507 528 529 508 508 529 530 509 509 530 531 510 510 531 532 511 511 532 533 512 512 533 534 513 513 534 535 514 514 535 536 515 515 536 537 516 516 537 538 517 517 538 539 518 518 539 540 519 519 540 541 520 520 541 542 521 521 542 543 522 522 543 544 523 523 544 545 524 525 546 547 526 526 547 548 527 527 548 549 528 528 549 550 529 529 550 551 530 530 551 552 531 531 552 553 532 532 553 554 533 533 554 555 534 534 555 556 535 535 556 557 536 536 557 558 537 537 558 559 538 538 559 560 539 539 560 561 540 540 561 562 541 541 562 563 542 542 563 564 543 543 564 565 544 544 565 566 545 546 567 568 547 547 568 569 548 548 569 570 549 549 570 571 550 550 571 572 551 551 572 573 552 552 573 574 553 553 574 575 554 554 575 576 555 555 576 577 556 556 577 578 557 557 578 579 558 558 579 580 559 559 580 581 560 560 581 582 561 561 582 583 562 562 583 584 563 563 584 585 564 564 585 586 565 565 586 587 566 567 588 589 568 568 589 590 569 569 590 591 570 570 591 592 571 571 592 593 572 572 593 594 573 573 594 595 574 574 595 596 575 575 596 597 576 576 597 598 577 577 598 599 578 578 599 600 579 579 600 601 580 580 601 602 581 581 602 603 582 582 603 604 583 583 604 605 584 584 605 606 585 585 606 607 586 586 607 608 587 588 609 610 589 589 610 611 590 590 611 612 591 591 612 613 592 592 613 614 593 593 614 615 594 594 615 616 595 595 616 617 596 596 617 618 597 597 618 619 598 598 619 620 599 599 620 621 600 600 621 622 601 601 622 623 602 602 623 624 603 603 624 625 604 604 625 626 605 605 626 627 606 606 627 628 607 607 628 629 608 609 630 631 610 610 631 632 611 611 632 633 612 612 633 634 613 613 634 635 614 614 635 636 615 615 636 637 616 616 637 638 617 617 638 639 618 618 639 640 619 619 640 641 620 620 641 642 621 621 642 643 622 622 643 644 623 623 644 645 624 624 645 646 625 625 646 647 626 626 647 648 627 627 648 649 628 628 649 650 629 630 651 652 631 631 652 653 632 632 653 654 633 633 654 655 634 634 655 656 635 635 656 657 636 636 657 658 637 637 658 659 638 638 659 660 639 639 660 661 640 640 661 662 641 641 662 663 642 642 663 664 643 643 664 665 644 644 665 666 645 645 666 667 646 646 667 668 647 647 668 669 648 648 669 670 649 649 670 671 650 651 672 673 652 652 673 674 653 653 674 675 654 654 675 676 655 655 676 677 656 656 677 678 657 657 678 679 658 658 679 680 659 659 680 681 660 660 681 682 661 661 682 683 662 662 683 684 663 663 684 685 664 664 685 686 665 665 68
[...]
      <PointData Vectors="UU" ><DataArray Name="UU" NumberOfComponents="3" type="Float32" format="ascii" >
 0 0 0 0.011875 1.47829e-13 0 0.0225 3.12796e-13 0 0.031875 4.80571e-13 0 0.04 4.56365e-13 0 0.046875 4.68487e-13 0 0.0525 2.64772e-13 0 0.056875 2.11888e-13 0 0.06 1.14032e-14 0 0.061875 4.2191e-14 0 0.0625 -6.94019e-14 0 0.061875 -4.75611e-15 0 0.06 -1.34197e-13 0 0.056875 -1.60284e-13 0 0.0525 -3.4403e-13 0 0.046875 -3.97642e-13 0 0.04 -4.83649e-13 0 0.031875 -4.10237e-13 0 0.0225 -3.14027e-13 0 0.011875 -1.25355e-13 0 0 0 0 0 0 0 0.011875 1.46666e-13 0 0.0225 2.99881e-13 0 0.031875 4.66225e-13 0 0.04 4.33175e-13 0 0.046875 4.57999e-13 0 0.0525 2.50199e-13 0 0.056875 2.13197e-13 0 0.06 1.14193e-15 0 0.061875 4.10122e-14 0 0.0625 -8.98904e-14 0 0.061875 -2.23416e-14 0 0.06 -1.77204e-13 0 0.056875 -2.10152e-13 0 0.0525 -4.24854e-13 0 0.046875 -4.8763e-13 0 0.04 -5.89226e-13 0 0.031875 -5.03016e-13 0 0.0225 -3.90973e-13 0 0.011875 -1.69519e-13 0 0 0 0 0 0 0 0.011875 1.26138e-13 0 0.0225 2.40854e-13 0 0.031875 3.86156e-13 0 0.04 3.47525e-13 0 0.046875 3.97115e-13 0 0.0525 2.16397e-13 0 0.056875 2.14656e-13 0 0.06 1.08518e-14 0 0.061875 5.31059e-14 0 0.0625 -1.01084e-13 0 0.061875 -4.6221e-14 0 0.06 -2.18521e-13 0 0.056875 -2.45489e-13 0 0.0525 -4.55464e-13 0 0.046875 -5.00885e-13 0 0.04 -5.96532e-13 0 0.031875 -5.04258e-13 0 0.0225 -3.98277e-13 0 0.011875 -1.82443e-13 0 0 0 0 0 0 0 0.011875 9.35894e-14 0 0.0225 1.51744e-13 0 0.031875 2.61702e-13 0 0.04 2.21333e-13 0 0.046875 3.02867e-13 0 0.0525 1.73499e-13 0 0.056875 2.19637e-13 0 0.06 4.11696e-14 0 0.061875 7.93424e-14 0 0.0625 -9.88229e-14 0 0.061875 -6.98315e-14 0 0.06 -2.50394e-13 0 0.056875 -2.60583e-13 0 0.0525 -4.331e-13 0 0.046875 -4.38375e-13 0 0.04 -5.08686e-13 0 0.031875 -4.1818e-13 0 0.0225 -3.39559e-13 0 0.011875 -1.66482e-13 0 0 0 0 0 0 0 0.011875 5.11206e-14 0 0.0225 4.61047e-14 0 0.031875 1.13705e-13 0 0.04 7.59121e-14 0 0.046875 1.90328e-13 0 0.0525 1.26703e-13 0 0.056875 2.2477e-13 0 0.06 8.52951e-14 0 0.061875 1.15687e-13 0 0.0625 -8.04865e-14 0 0.061875 -8.43137e-14 0 0.06 -2.62158e-13 0 0.056875 -2.48955e-13 0 0.0525 -3.60046e-13 0 0.046875 -3.11697e-13 0 0.04 -3.43084e-13 0 0.031875 -2.61943e-13 0 0.0225 -2.26003e-13 0 0.011875 -1.23438e-13 0 0 0 0 0 0 0 0.011875 1.06027e-14 0 0.0225 -5.32848e-14 0 0.031875 -2.86932e-14 0 0.04 -6.09569e-14 0 0.046875 7.90561e-14 0 0.0525 8.27188e-14 0 0.056875 2.25887e-13 0 0.06 1.33348e-13 0 0.061875 1.54741e-13 0 0.0625 -4.71031e-14 0 0.061875 -8.3872e-14 0 0.06 -2.47778e-13 0 0.056875 -2.11715e-13 0 0.0525 -2.51619e-13 0 0.046875 -1.50595e-13 0 0.04 -1.38859e-13 0 0.031875 -7.40597e-14 0 0.0225 -8.65815e-14 0 0.011875 -6.68865e-14 0 0 0 0 0 0 0 0.011875 -2.44291e-14 0 0.0225 -1.33243e-13 0 0.031875 -1.46158e-13 0 0.04 -1.70874e-13 0 0.046875 -1.89781e-14 0 0.0525 4.21731e-14 0 0.056875 2.14586e-13 0 0.06 1.71753e-13 0 0.061875 1.86206e-13 0 0.0625 -2.50043e-15 0 0.061875 -6.4568e-14 0 0.06 -2.02787e-13 0 0.056875 -1.50818e-13 0 0.0525 -1.24461e-13 0 0.046875 1.38204e-14 0 0.04 6.31845e-14 0 0.031875 1.06475e-13 0 0.0225 5.11356e-14 0 0.011875 -6.34925e-15 0 0 0 0 0 0 0 0.011875 -4.53358e-14 0 0.0225 -1.78554e-13 0 0.031875 -2.19145e-13 0 0.04 -2.35785e-13 0 0.046875 -9.07601e-14 0 0.0525 8.22765e-15 0 0.056875 1.86141e-13 0 0.06 1.89267e-13 0 0.061875 1.99574e-13 0 0.0625 4.51829e-14 0 0.061875 -2.94935e-14 0 0.06 -1.31318e-13 0 0.056875 -7.56166e-14 0 0.0525 -5.0822e-16 0 0.046875 1.47913e-13 0 0.04 2.21057e-13 0 0.031875 2.39532e-13 0 0.0225 1.566e-13 0 0.011875 4.31691e-14 0 0 0 0 0 0 0 0.011875 -5.31927e-14 0 0.0225 -1.87081e-13 0 0.031875 -2.42394e-13 0 0.04 -2.50642e-13 0 0.046875 -1.31924e-13 0 0.0525 -1.92868e-14 0 0.056875 1.37348e-13 0 0.06 1.77836e-13 0 0.061875 1.86525e-13 0 0.0625 8.66429e-14 0 0.061875 1.46778e-14 0 0.06 -4.13645e-14 0 0.056875 4.54407e-15 0 0.0525 1.04504e-13 0 0.046875 2.31305e-13 0 0.04 3.10348e-13 0 0.031875 3.03001e-13 0 0.0225 2.13282e-13 0 0.011875 7.44521e-14 0 0 0 0 0 0 0 0.011875 -4.90036e-14 0 0.0225 -1.61524e-13 0 0.031875 -2.18527e-13 0 0.04 -2.18461e-13 0 0.046875 -1.42856e-13 0 0.0525 -4.03211e-14 0 0.056875 7.00173e-14 0 0.06 1.36112e-13 0 0.061875 1.43922e-13 0 0.0625 1.13319e-13 0 0.061875 5.78854e-14 0 0.06 5.39783e-14 0 0.056875 7.80462e-14 0 0.0525 1.78665e-13 0 0.046875 2.54709e-13 0 0.04 3.22234e-13 0 0.031875 2.90052e-13 0 0.0225 2.14495e-13 0 0.011875 8.19092e-14 0 0 0 0 0 0 0 0.011875 -4.01569e-14 0 0.0225 -1.15791e-13 0 0.031875 -1.64525e-13 0 0.04 -1.56586e-13 0 0.046875 -1.34596e-13 0 0.0525 -5.94502e-14 0 0.056875 -1.22951e-14 0 0.06 6.87636e-14 0 0.061875 7.57554e-14 0 0.0625 1.2179e-13 0 0.061875 9.25592e-14 0 0.06 1.42928e-13 0 0.056875 1.3687e-13 0 0.0525 2.18916e-13 0 0.046875 2.23968e-13 0 0.04 2.67026e-13 0 0.031875 2.12844e-13 0 0.0225 1.67964e-13 0 0.011875 6.72348e-14 0 0 0 0 0 0 0 0.011875 -3.54596e-14 0 0.0225 -6.92074e-14 0 0.031875 -1.05936e-13 0 0.04 -9.17846e-14 0 0.046875 -1.25778e-13 0 0.0525 -8.49125e-14 0 0.056875 -1.04955e-13 0 0.06 -1.46301e-14 0 0.061875 -7.4546e-15 0 0.0625 1.14758e-13 0 0.061875 1.15555e-13 0 0.06 2.16993e-13 0 0.056875 1.76946e-13 0 0.0525 2.28856e-13 0 0.046875 1.55022e-13 0 0.04 1.67429e-13 0 0.031875 9.56725e-14 0 0.0225 9.08024e-14 0 0.011875 3.71226e-14 0 0 0 0 0 0 0 0.011875 -4.14092e-14 0 0.0225 -4.01831e-14 0 0.031875 -6.88196e-14 0 0.04 -5.18853e-14 0 0.046875 -1.35994e-13 0 0.0525 -1.24705e-13 0 0.056875 -2.01546e-13 0 0.06 -1.00865e-13 0 0.061875 -9.03106e-14 0 0.0625 1.00314e-13 0 0.061875 1.28642e-13 0 0.06 2.72063e-13 0 0.056875 1.98135e-13 0 0.0525 2.16322e-13 0 0.046875 6.83956e-14 0 0.04 5.1025e-14 0 0.031875 -3.29667e-14 0 0.0225 3.28369e-15 0 0.011875 -5.86851e-17 0 0 0 0 0 0 0 0.011875 -6.44167e-14 0 0.0225 -4.46863e-14 0 0.031875 -7.50679e-14 0 0.04 -5.96833e-14 0 0.046875 -1.80639e-13 0 0.0525 -1.84212e-13 0 0.056875 -2.94963e-13 0 0.06 -1.76641e-13 0 0.061875 -1.57217e-13 0 0.0625 8.83279e-14 0 0.061875 1.36832e-13 0 0.06 3.08806e-13 0 0.056875 2.05346e-13 0 0.0525 1.94032e-13 0 0.046875 -1.14726e-14 0 0.04 -5.13694e-14 0 0.031875 -1.41654e-13 0 0.0225 -7.07304e-14 0 0.011875 -3.14211e-14 0 0 0 0 0 0 0 0.011875 -1.00136e-13 0 0.0225 -8.27332e-14 0 0.031875 -1.26925e-13 0 0.04 -1.17346e-13 0 0.046875 -2.57579e-13 0 0.0525 -2.56843e-13 0 0.056875 -3.73073e-13 0 0.06 -2.28816e-13 0 0.061875 -1.9577e-13 0 0.0625 8.57659e-14 0 0.061875 1.4346e-13 0 0.06 3.27881e-13 0 0.056875 2.03032e-13 0 0.0525 1.72473e-13 0 0.046875 -6.56733e-14 0 0.04 -1.16896e-13 0 0.031875 -2.08123e-13 0 0.0225 -1.15547e-13 0 0.011875 -5.0112e-14 0 0 0 0 0 0 0 0.011875 -1.45005e-13 0 0.0225 -1.47802e-13 0 0.031875 -2.14223e-13 0 0.04 -2.12063e-13 0 0.046875 -3.52168e-13 0 0.0525 -3.28979e-13 0 0.056875 -4.23926e-13 0 0.06 -2.4935e-13 0 0.061875 -2.00788e-13 0 0.0625 9.44944e-14 0 0.061875 1.50222e-13 0 0.06 3.32058e-13 0 0.056875 1.98549e-13 0 0.0525 1.63765e-13 0 0.046875 -7.7042e-14 0 0.04 -1.26612e-13 0 0.031875 -2.14387e-13 0 0.0225 -1.17288e-13 0 0.011875 -4.7246e-14 0 0 0 0 0 0 0 0.011875 -1.83443e-13 0 0.0225 -2.1569e-13 0 0.031875 -3.05409e-13 0 0.04 -3.09301e-13 0 0.046875 -4.32471e-13 0 0.0525 -3.76753e-13 0 0.056875 -4.33727e-13 0 0.06 -2.34181e-13 0 0.061875 -1.74363e-13 0 0.0625 1.10031e-13 0 0.061875 1.54039e-13 0 0.06 3.20839e-13 0 0.056875 1.94031e-13 0 0.0525 1.70732e-13 0 0.046875 -4.34328e-14 0 0.04 -8.03833e-14 0 0.031875 -1.62096e-13 0 0.0225 -7.88866e-14 0 0.011875 -2.60165e-14 0 0 0 0 0 0 0 0.011875 -2.06848e-13 0 0.0225 -2.65942e-13 0 0.031875 -3.7055e-13 0 0.04 -3.75559e-13 0 0.046875 -4.69376e-13 0 0.0525 -3.81332e-13 0 0.056875 -3.96298e-13 0 0.06 -1.8708e-13 0 0.061875 -1.24934e-13 0 0.0625 1.25297e-13 0 0.061875 1.52143e-13 0 0.06 2.95856e-13 0 0.056875 1.91788e-13 0 0.0525 1.92767e-13 0 0.046875 2.89939e-14 0 0.04 1.1436e-14 0 0.031875 -6.26145e-14 0 0.0225 -8.55552e-15 0 0.011875 1.10412e-14 0 0 0 0 0 0 0 0.011875 -2.01079e-13 0 0.0225 -2.74519e-13 0 0.031875 -3.7894e-13 0 0.04 -3.79128e-13 0 0.046875 -4.38081e-13 0 0.0525 -3.29108e-13 0 0.056875 -3.10942e-13 0 0.06 -1.1551e-13 0 0.061875 -6.33247e-14 0 0.0625 1.32644e-13 0 0.061875 1.40671e-13 0 0.06 2.55686e-13 0 0.056875 1.86225e-13 0 0.0525 2.16081e-13 0 0.046875 1.15692e-13 0 0.04 1.17816e-13 0 0.031875 5.26534e-14 0 0.0225 6.91413e-14 0 0.011875 4.97865e-14 0 0 0 0 0 0 0 0.011875 -1.65688e-13 0 0.0225 -2.35573e-13 0 0.031875 -3.22112e-13 0 0.04 -3.12069e-13 0 0.046875 -3.36285e-13 0 0.0525 -2.24113e-13 0 0.056875 -1.8842e-13 0 0.06 -3.13993e-14 0 0.061875 2.99728e-16 0 0.0625 1.28508e-13 0 0.061875 1.19915e-13 0 0.06 2.018e-13 0 0.056875 1.71648e-13 0 0.0525 2.24649e-13 0 0.046875 1.88262e-13 0 0.04 2.04457e-13 0 0.031875 1.50661e-13 0 0.0225 1.30856e-13 0 0.011875 7.98491e-14 0 0 0 0 0 0 0 0.011875 -1.01217e-13 0 0.0225 -1.50678e-13 0 0.031875 -2.04875e-13 0 0.04 -1.82563e-13 0 0.046875 -1.77135e-13 0 0.0525 -8.13058e-14 0 0.056875 -4.48044e-14 0 0.06 5.36313e-14 0 0.061875 5.87612e-14 0 0.0625 1.12732e-13 0 0.061875 9.11738e-14 0 0.06 1.34165e-13 0 0.056875 1.38477e-13 0 0.0525 1.9827e-13 0 0.046875 2.14645e-13 0 0.04 2.34735e-13 0 0.031875 1.96455e-13 0 0.0225 1.50952e-13 0 0.011875 8.70383e-14 0 0 0 0 0 0 0 0.011875 -2.04539e-14 0 0.0225 -3.81517e-14 0 0.031875 -5.20775e-14 0 0.04 -1.92055e-14 0 0.046875 8.67437e-15 0 0.0525 7.2714e-14 0 0.056875 9.85874e-14 0 0.06 1.28388e-13 0 0.061875 1.07983e-13 0 0.0625 8.90319e-14 0 0.061875 5.88318e-14 0 0.06 5.61525e-14 0 0.056875 8.23879e-14 0 0.0525 1.26114e-13 0 0.046875 1.76437e-13 0 0.04 1.88735e-13 0 0.031875 1.7159e-13 0 0.0225 1.17342e-13 0 0.011875 6.57354e-14 0 0 0 0 0 0 0 0.011875 6.30228e-14 0 0.0225 8.04722e-14 0 0.031875 1.0657e-13 0 0.04 1.44509e-13 0 0.046875 1.87053e-13 0 0.0525 2.10712e-13 0 0.056875 2.22092e-13 0 0.06 1.84347e-13 0 0.061875 1.45753e-13 0 0.0625 6.1475e-14 0 0.061875 2.64365e-14 0 0.06 -2.83618e-14 0 0.056875 3.42498e-15 0 0.0525 7.81265e-15 0 0.046875 7.12271e-14 0 0.04 6.54896e-14 0 0.031875 7.50159e-14 0 0.0225 3.00512e-14 0 0.011875 1.51294e-14 0 0 0 0 0 0 0 0.011875 1.33738e-13 0 0.0225 1.8201e-13 0 0.031875 2.40838e-13 0 0.04 2.76339e-13 0 0.046875 3.27036e-13 0 0.0525 3.09945e-13 0 0.056875 3.10652e-13 0 0.06 2.16471e-13 0 0.061875 1.71113e-13 0 0.0625 3.3546e-14 0 0.061875 -3.08206e-15 0 0.06 -1.1334e-13 0 0.056875 -9.06803e-14 0 0.0525 -1.42425e-13 0 0.046875 -8.28807e-14 0 0.04 -1.12861e-13 0 0.031875 -7.31312e-14 0 0.0225 -9.51926e-14 0 0.011875 -5.71274e-14 0 0 0 0 0 0 0 0.011875 1.79143e-13 0 0.0225 2.47814e-13 0 0.031875 3.27285e-13 0 0.04 3.52963e-13 0 0.046875 4.07741e-13 0 0.0525 3.57184e-13 0 0.056875 3.56614e-13 0 0.06 2.23668e-13 0 0.061875 1.83681e-13 0 0.0625 6.93318e-15 0 0.061875 -2.86456e-14 0 0.06 -1.921e-13 0 0.056875 -1.86789e-13 0 0.0525 -2.99507e-13 0 0.046875 -2.52388e-13 0 0.04 -3.07004e-13 0 0.031875 -2.36849e-13 0 0.0225 -2.30565e-13 0 0.011875 -1.36011e-13 0 0 0 0 0 0 0 0.011875 1.95446e-13 0 0.0225 2.70208e-13 0 0.031875 3.55988e-13 0 0.04 3.66392e-13 0 0.046875 4.23897e-13 0 0.0525 3.52722e-13 0 0.056875 3.62343e-13 0 0.06 2.10366e-13 0 0.061875 1.84914e-13 0 0.0625 -1.75065e-14 0 0.061875 -5.06241e-14 0 0.06 -2.58892e-13 0 0.056875 -2.70918e-13 0 0.0525 -4.35968e-13 0 0.046875 -4.00226e-13 0 0.04 -4.74114e-13 0 0.031875 -3.77378e-13 0 0.0225 -3.46657e-13 0 0.011875 -2.05919e-13 0 0 0 0 0 0 0 0.011875 1.81544e-13 0 0.0225 2.47337e-13 0 0.031875 3.25997e-13 0 0.04 3.1951e-13 0 0.046875 3.8125e-13 0 0.0525 3.05645e-13 0 0.056875 3.36129e-13 0 0.06 1.83785e-13 0 0.061875 1.77495e-13 0 0.0625 -3.85456e-14 0 0.061875 -6.8507e-14 0 0.06 -3.07172e-13 0 0.056875 -3.28531e-13 0 0.0525 -5.25327e-13 0 0.046875 -4.9162e-13 0 0.04 -5.74641e-13 0 0.031875 -4.5844e-13 0 0.0225 -4.1431e-13 0 0.011875 -2.48236e-13 0 0 0 0 0 0 0 0.011875 1.48432e-13 0 0.0225 1.92684e-13 0 0.031875 2.53912e-13 0 0.04 2.32604e-13 0 0.046875 3.00691e-13 0 0.0525 2.35675e-13 0 0.056875 2.92643e-13 0 0.06 1.53667e-13 0 0.061875 1.65136e-13 0 0.0625 -5.486e-14 0 0.061875 -8.20248e-14 0 0.06 -3.32979e-13 0 0.056875 -3.51372e-13 0 0.0525 -5.53073e-13 0 0.046875 -5.08676e-13 0 0.04 -5.89151e-13 0 0.031875 -4.63209e-13 0 0.0225 -4.20307e-13 0 0.011875 -2.54728e-13 0 0 0 0 0 0 0 0.011875 1.03363e-13 0 0.0225 1.19985e-13 0 0.031875 1.59379e-13 0 0.04 1.29209e-13 0 0.046875 2.04953e-13 0 0.0525 1.61393e-13 0 0.056875 2.43635e-13 0 0.06 1.26148e-13 0 0.061875 1.49875e-13 0 0.0625 -6.47924e-14 0 0.061875 -8.8478e-14 0 0.06 -3.30949e-13 0 0.056875 -3.32783e-13 0 0.0525 -5.1186e-13 0 0.046875 -4.45315e-13 0 0.04 -5.12668e-13 0 0.031875 -3.8774e-13 0 0.0225 -3.5982e-13 0 0.011875 -2.19058e-13 0 0 0 0 0 0 0 0.011875 6.16675e-14 0 0.0225 5.30601e-14 0 0.031875 7.2426e-14 0 0.04 4.09314e-14 0 0.046875 1.21499e-13 0 0.0525 1.01941e-13 0 0.056875 1.98983e-13 0 0.06 1.04027e-13 0 0.061875 1.31262e-13 0 0.0625 -6.87171e-14 0 0.061875 -8.70089e-14 0 0.06 -3.0036e-13 0 0.056875 -2.75135e-13 0 0.0525 -4.09811e-13 0 0.046875 -3.16035e-13 0 0.04 -3.64001e-13 0 0.031875 -2.51114e-13 0 0.0225 -2.48171e-13 0 0.011875 -1.50278e-13 0 0 0 0 0 0 0 0.011875 2.7648e-14 0 0.0225 5.02554e-15 0 0.031875 1.21555e-14 0 0.04 -1.26458e-14 0 0.046875 6.56462e-14 0 0.0525 6.47001e-14 0 0.056875 1.59228e-13 0 0.06 8.34076e-14 0 0.061875 1.05884e-13 0 0.0625 -6.77915e-14 0 0.061875 -7.602e-14 0 0.06 -2.40991e-13 0 0.056875 -1.83231e-13 0 0.0525 -2.60702e-13 0 0.046875 -1.42778e-13 0 0.04 -1.70024e-13 0 0.031875 -7.87761e-14 0 0.0225 -1.04746e-13 0 0.011875 -5.84283e-14 0 0 0 0 0 0 0 0.011875 8.88904e-15 0 0.0225 -1.12503e-14 0 0.031875 -6.14238e-15 0 0.04 -1.86525e-14 0 0.046875 4.55312e-14 0 0.0525 5.08122e-14 0 0.056875 1.21301e-13 0 0.06 5.86502e-14 0 0.061875 6.99545e-14 0 0.0625 -6.46924e-14 0 0.061875 -5.7289e-14 0 0.06 -1.59502e-13 0 0.056875 -7.14658e-14 0 0.0525 -9.05439e-14 0 0.046875 3.95229e-14 0 0.04 2.92203e-14 0 0.031875 9.16826e-14 0 0.0225 3.94775e-14 0 0.011875 3.56395e-14 0 0 0 0 0 0 0 0.011875 1.15674e-15 0 0.0225 4.40525e-16 0 0.031875 1.28315e-14 0 0.04 1.50694e-14 0 0.046875 5.18537e-14 0 0.0525 4.93743e-14 0 0.056875 7.67516e-14 0 0.06 2.33802e-14 0 0.061875 2.17989e-14 0 0.0625 -6.03305e-14 0 0.061875 -3.20196e-14 0 0.06 -6.38176e-14 0 0.056875 4.44078e-14 0 0.0525 7.40657e-14 0 0.046875 1.97689e-13 0 0.04 1.97388e-13 0 0.031875 2.27979e-13 0 0.0225 1.58995e-13 0 0.011875 1.16055e-13 0 0 0 0 0 0 0 0.011875 2.53559e-15 0 0.0225 3.27494e-14 0 0.031875 5.66665e-14 0 0.04 7.17855e-14 0 0.046875 6.89257e-14 0 0.0525 4.7311e-14 0 0.056875 1.94654e-14 0 0.06 -2.44224e-14 0 0.061875 -3.62763e-14 0 0.0625 -5.47105e-14 0 0.061875 -3.46038e-15 0 0.06 3.38231e-14 0 0.056875 1.44899e-13 0 0.0525 2.04835e-13 0 0.046875 2.99961e-13 0 0.04 3.01396e-13 0 0.031875 3.01404e-13 0 0.0225 2.30289e-13 0 0.011875 1.66466e-13 0 0 0 0 0 0 0 0.011875 5.29248e-15 0 0.0225 6.88557e-14 0 0.031875 1.01985e-13 0 0.04 1.24997e-13 0 0.046875 7.52167e-14 0 0.0525 3.03636e-14 0 0.056875 -5.38321e-14 0 0.06 -8.25369e-14 0 0.061875 -9.83402e-14 0 0.0625 -4.63171e-14 0 0.061875 2.55837e-14 0 0.06 1.2256e-13 0 0.056875 2.1582e-13 0 0.0525 2.84085e-13 0 0.046875 3.30448e-13 0 0.04 3.26592e-13 0 0.031875 3.01262e-13 0 0.0225 2.44758e-13 0 0.011875 1.81024e-13 0 0 0 0 0 0 0 0.011875 4.406e-15 0 0.0225 9.34654e-14 0 0.031875 1.27206e-13 0 0.04 1.51474e-13 0 0.046875 5.45013e-14 0 0.0525 -9.11261e-15 0 0.056875 -1.40015e-13 0 0.06 -1.44534e-13 0 0.061875 -1.57326e-13 0 0.0625 -3.52224e-14 0 0.061875 5.03196e-14 0 0.06 1.92099e-13 0 0.056875 2.49148e-13 0 0.0525 3.07e-13 0 0.046875 2.91788e-13 0 0.04 2.79145e-13 0 0.031875 2.35869e-13 0 0.0225 2.07969e-13 0 0.011875 1.61806e-13 0 0 0 0 0 0 0 0.011875 -3.41944e-15 0 0.0225 9.50666e-14 0 0.031875 1.17254e-13 0 0.04 1.36862e-13 0 0.046875 3.13585e-16 0 0.0525 -6.99787e-14 0 0.056875 -2.29974e-13 0 0.06 -2.01596e-13 0 0.061875 -2.07081e-13 0 0.0625 -2.39154e-14 0 0.061875 6.47019e-14 0 0.06 2.35003e-13 0 0.056875 2.45839e-13 0 0.0525 2.84307e-13 0 0.046875 2.07037e-13 0 0.04 1.87224e-13 0 0.031875 1.33218e-13 0 0.0225 1.40089e-13 0 0.011875 1.19205e-13 0 0 0 0 0 0 0 0.011875 -2.02559e-14 0 0.0225 6.77217e-14 0 0.031875 6.6536e-14 0 0.04 7.83416e-14 0 0.046875 -8.31323e-14 0 0.0525 -1.43457e-13 0 0.056875 -3.11341e-13 0 0.06 -2.45397e-13 0 0.061875 -2.44207e-13 0 0.0625 -1.72382e-14 0 0.061875 6.25885e-14 0 0.06 2.478e-13 0 0.056875 2.15071e-13 0 0.0525 2.3894e-13 0 0.046875 1.13806e-13 0 0.04 9.40676e-14 0 0.031875 3.47066e-14 0 0.0225 7.18229e-14 0 0.011875 7.0672e-14 0 0 0 0 0 0 0 0.011875 -4.13462e-14 0 0.0225 1.72296e-14 0 0.031875 -1.55691e-14 0 0.04 -1.14575e-14 0 0.046875 -1.79272e-13 0 0.0525 -2.13216e-13 0 0.056875 -3.69413e-13 0 0.06 -2.68213e-13 0 0.061875 -2.66799e-13 0 0.0625 -1.99978e-14 0 0.061875 3.96476e-14 0 0.06 2.30179e-13 0 0.056875 1.6852e-13 0 0.0525 1.9465e-13 0 0.046875 4.78654e-14 0 0.04 3.92277e-14 0 0.031875 -2.29786e-14 0 0.0225 2.96504e-14 0 0.011875 3.05014e-14 0 0 0 0 0 0 0 0.011875 -6.50843e-14 0 0.0225 -4.91419e-14 0 0.031875 -1.15644e-13 0 0.04 -1.15861e-13 0 0.046875 -2.70389e-13 0 0.0525 -2.65107e-13 0 0.056875 -3.94143e-13 0 0.06 -2.66091e-13 0 0.061875 -2.73781e-13 0 0.0625 -3.31905e-14 0 0.061875 -2.04015e-15 0 0.06 1.88391e-13 0 0.056875 1.20409e-13 0 0.0525 1.72101e-13 0 0.046875 3.60972e-14 0 0.04 5.07022e-14 0 0.031875 -1.36922e-14 0 0.0225 3.42314e-14 0 0.011875 1.33004e-14 0 0 0 0 0 0 0 0.011875 -8.23687e-14 0 0.0225 -1.14411e-13 0 0.031875 -2.108e-13 0 0.04 -2.11054e-13 0 0.046875 -3.36078e-13 0 0.0525 -2.86031e-13 0 0.056875 -3.78863e-13 0 0.06 -2.37139e-13 0 0.061875 -2.63176e-13 0 0.0625 -5.31326e-14 0 0.061875 -5.52425e-14 0 0.06 1.3072e-13 0 0.056875 7.89911e-14 0 0.0525 1.76487e-13 0 0.046875 8.09233e-14 0 0.04 1.2786e-13 0 0.031875 6.11034e-14 0 0.0225 8.47851e-14 0 0.011875 2.04671e-14 0 0 0 0 0 0 0 0.011875 -9.27649e-14 0 0.0225 -1.6917e-13 0 0.031875 -2.86146e-13 0 0.04 -2.82308e-13 0 0.046875 -3.66817e-13 0 0.0525 -2.74031e-13 0 0.056875 -3.26862e-13 0 0.06 -1.85021e-13 0 0.061875 -2.33629e-13 0 0.0625 -7.15509e-14 0 0.061875 -1.06365e-13 0 0.06 7.03255e-14 0 0.056875 5.13111e-14 0 0.0525 2.04582e-13 0 0.046875 1.69517e-13 0 0.04 2.52343e-13 0 0.031875 1.84243e-13 0 0.0225 1.71146e-13 0 0.011875 5.18864e-14 0 0 0 0 0 0 0 0.011875 -8.96333e-14 0 0.0225 -1.98834e-13 0 0.031875 -3.23822e-13 0 0.04 -3.14233e-13 0 0.046875 -3.55041e-13 0 0.0525 -2.30344e-13 0 0.056875 -2.45362e-13 0 0.06 -1.16249e-13 0 0.061875 -1.85707e-13 0 0.0625 -8.06729e-14 0 0.061875 -1.43229e-13 0 0.06 1.68635e-14 0 0.056875 3.59718e-14 0 0.0525 2.39569e-13 0 0.046875 2.70392e-13 0 0.04 3.84964e-13 0 0.031875 3.18163e-13 0 0.0225 2.65843e-13 0 0.011875 9.42305e-14 0 0 0 0 0 0 0 0.011875 -7.65104e-14 0 0.0225 -1.999e-13 0 0.031875 -3.1766e-13 0 0.04 -3.02657e-13 0 0.046875 -3.03575e-13 0 0.0525 -1.64614e-13 0 0.056875 -1.48642e-13 0 0.06 -4.25828e-14 0 0.061875 -1.24525e-13 0 0.0625 -7.58966e-14 0 0.061875 -1.56148e-13 0 0.06 -2.10096e-14 0 0.056875 3.12713e-14 0 0.0525 2.65454e-13 0 0.046875 3.53096e-13 0 0.04 4.88374e-13 0 0.031875 4.27497e-13 0 0.0225 3.44158e-13 0 0.011875 1.3725e-13 0 0 0 0 0 0 0 0.011875 -5.08711e-14 0 0.0225 -1.65313e-13 0 0.031875 -2.59774e-13 0 0.04 -2.42046e-13 0 0.046875 -2.13665e-13 0 0.0525 -8.41374e-14 0 0.056875 -4.95217e-14 0 0.06 2.38112e-14 0 0.061875 -5.93173e-14 0 0.0625 -5.96011e-14 0 0.061875 -1.44477e-13 0 0.06 -4.27427e-14 0 0.056875 2.95867e-14 0 0.0525 2.64031e-13 0 0.046875 3.87458e-13 0 0.04 5.26756e-13 0 0.031875 4.77161e-13 0 0.0225 3.7884e-13 0 0.011875 1.64478e-13 0 0 0 0 0 0 0 0.011875 -1.76478e-14 0 0.0225 -9.86318e-14 0 0.031875 -1.54033e-13 0 0.04 -1.36911e-13 0 0.046875 -9.31919e-14 0 0.0525 1.47645e-15 0 0.056875 3.92296e-14 0 0.06 7.10647e-14 0 0.061875 -1.53601e-15 0 0.0625 -3.87258e-14 0 0.061875 -1.13343e-13 0 0.06 -5.09323e-14 0 0.056875 2.53747e-14 0 0.0525 2.26417e-13 0 0.046875 3.58568e-13 0 0.04 4.82953e-13 0 0.031875 4.49898e-13 0 0.0225 3.56656e-13 0 0.011875 1.67797e-13 0 0 0 0 0 0 0 0.011875 2.24625e-14 0 0.0225 -4.54929e-15 0 0.031875 -8.64756e-15 0 0.04 4.26562e-15 0 0.0